LAMMPS (5 Jun 2019)
Reading data file ...
  orthogonal box = (0 0 0) to (40.4807 40.4807 40.4807)
  1 by 1 by 1 MPI processor grid
  reading atoms ...
  1000 atoms
Finding 1-2 1-3 1-4 neighbors ...
  special bond factors lj:   0          0          0         
  special bond factors coul: 0          0          0         
  0 = max # of 1-2 neighbors
  0 = max # of 1-3 neighbors
  0 = max # of 1-4 neighbors
  1 = max # of special neighbors
  special bonds CPU = 0.000123978 secs
  read_data CPU = 0.00110912 secs
Neighbor list info ...
  update every 1 steps, delay 10 steps, check yes
  max neighbors/atom: 2000, page size: 100000
  master list distance cutoff = 12
  ghost atom cutoff = 12
  binsize = 6, bins = 7 7 7
  1 neighbor lists, perpetual/occasional/extra = 1 0 0
  (1) pair lj/class2, perpetual
      attributes: half, newton on
      pair build: half/bin/newton
      stencil: half/bin/3d/newton
      bin: standard
Setting up Verlet run ...
  Unit style    : real
  Current step  : 0
  Time step     : 4
Per MPI rank memory allocation (min/avg/max) = 5.818 | 5.818 | 5.818 Mbytes
Time Temp Press TotEng KinEng PotEng E_bond E_angle E_dihed E_impro E_vdwl E_tail E_coul E_long 
           0          130    38124.318    9737.5529     387.1178    9350.4351            0            0            0            0    9350.4351   -63.374835            0            0 
        1000    124.04385   -120.70484    -597.0271     369.3814    -966.4085            0            0            0            0    -966.4085   -63.374835            0            0 
        2000    127.71017   -97.277242   -580.35146    380.29909   -960.65055            0            0            0            0   -960.65055   -63.374835            0            0 
        3000    137.92022   -80.393403   -549.14068    410.70285   -959.84354            0            0            0            0   -959.84354   -63.374835            0            0 
        4000    134.03497   -36.906105   -558.89025    399.13327   -958.02351            0            0            0            0   -958.02351   -63.374835            0            0 
        5000    129.57535   -48.880677   -569.82471    385.85325   -955.67797            0            0            0            0   -955.67797   -63.374835            0            0 
        6000    134.74542   -122.95743   -567.42446    401.24885   -968.67332            0            0            0            0   -968.67332   -63.374835            0            0 
        7000    128.59571   -46.415063   -570.68072    382.93605   -953.61677            0            0            0            0   -953.61677   -63.374835            0            0 
        8000    130.26805   -134.14318   -579.64905      387.916   -967.56505            0            0            0            0   -967.56505   -63.374835            0            0 
        9000    121.66136   -82.401635   -595.74208    362.28676   -958.02884            0            0            0            0   -958.02884   -63.374835            0            0 
       10000    125.36919   -54.478902   -576.75128    373.32802    -950.0793            0            0            0            0    -950.0793   -63.374835            0            0 
       11000    127.60266   -93.876752   -577.14487    379.97892   -957.12379            0            0            0            0   -957.12379   -63.374835            0            0 
       12000    134.17812   -55.044113   -554.68563    399.55952   -954.24515            0            0            0            0   -954.24515   -63.374835            0            0 
       13000    123.09819   -80.872438   -591.41605    366.56539   -957.98144            0            0            0            0   -957.98144   -63.374835            0            0 
       14000    126.62344   -64.863615   -574.68825    377.06298   -951.75123            0            0            0            0   -951.75123   -63.374835            0            0 
       15000    133.82362   -41.290474   -556.87362     398.5039   -955.37751            0            0            0            0   -955.37751   -63.374835            0            0 
       16000    133.89072    -59.54552   -555.43813    398.70371   -954.14185            0            0            0            0   -954.14185   -63.374835            0            0 
       17000    127.97876    -35.87237   -564.83314     381.0989   -945.93204            0            0            0            0   -945.93204   -63.374835            0            0 
       18000    130.31898   -51.783616   -563.25344    388.06767   -951.32112            0            0            0            0   -951.32112   -63.374835            0            0 
       19000     128.6607   -78.807054    -573.5236    383.12958   -956.65318            0            0            0            0   -956.65318   -63.374835            0            0 
       20000    127.86153   -74.427041   -582.69552    380.74981   -963.44534            0            0            0            0   -963.44534   -63.374835            0            0 
       21000    132.26603   -50.653415   -566.32721    393.86565   -960.19286            0            0            0            0   -960.19286   -63.374835            0            0 
       22000    129.04167   -57.433964   -569.66705    384.26407   -953.93112            0            0            0            0   -953.93112   -63.374835            0            0 
       23000     134.3265   -66.074715    -556.9512    400.00137   -956.95257            0            0            0            0   -956.95257   -63.374835            0            0 
       24000    130.35721   -56.985877   -562.80346    388.18152   -950.98498            0            0            0            0   -950.98498   -63.374835            0            0 
       25000    131.45127   -18.559574   -559.47916    391.43944    -950.9186            0            0            0            0    -950.9186   -63.374835            0            0 
       26000    129.05319   -52.580217    -567.1417    384.29836   -951.44006            0            0            0            0   -951.44006   -63.374835            0            0 
       27000    131.19315    -60.71406   -557.71592     390.6708   -948.38672            0            0            0            0   -948.38672   -63.374835            0            0 
       28000     133.0087   -47.781591   -557.06067    396.07718   -953.13785            0            0            0            0   -953.13785   -63.374835            0            0 
       29000    130.49393   -86.330244   -574.59262    388.58864   -963.18126            0            0            0            0   -963.18126   -63.374835            0            0 
       30000    126.88012   -105.62434   -584.44521    377.82733   -962.27253            0            0            0            0   -962.27253   -63.374835            0            0 
       31000    134.40526   -66.582494   -553.79533     400.2359   -954.03123            0            0            0            0   -954.03123   -63.374835            0            0 
       32000    125.88162   -61.395425   -574.24333    374.85396   -949.09729            0            0            0            0   -949.09729   -63.374835            0            0 
       33000    120.65254   -60.113165   -597.92591    359.28267   -957.20858            0            0            0            0   -957.20858   -63.374835            0            0 
       34000    127.91892   -82.111733   -579.66956     380.9207   -960.59026            0            0            0            0   -960.59026   -63.374835            0            0 
       35000    132.70435   -88.828835    -569.5977    395.17089   -964.76858            0            0            0            0   -964.76858   -63.374835            0            0 
       36000    132.18012   -76.897125   -563.29761    393.60981   -956.90742            0            0            0            0   -956.90742   -63.374835            0            0 
       37000    129.07193   -65.587539   -575.40721    384.35417   -959.76138            0            0            0            0   -959.76138   -63.374835            0            0 
       38000    134.04468   -29.872807   -550.98533    399.16217    -950.1475            0            0            0            0    -950.1475   -63.374835            0            0 
       39000    125.27843   -72.234668   -581.51309    373.05776   -954.57085            0            0            0            0   -954.57085   -63.374835            0            0 
       40000    129.49951   -49.568492   -570.15873    385.62742   -955.78615            0            0            0            0   -955.78615   -63.374835            0            0 
       41000    127.63083   -44.355353   -574.71762    380.06281   -954.78043            0            0            0            0   -954.78043   -63.374835            0            0 
       42000     127.7112   -45.955603   -568.34965    380.30216   -948.65181            0            0            0            0   -948.65181   -63.374835            0            0 
       43000    130.03891   -46.776478   -561.48845    387.23366   -948.72212            0            0            0            0   -948.72212   -63.374835            0            0 
       44000    130.05475   -61.095141   -566.76164    387.28083   -954.04247            0            0            0            0   -954.04247   -63.374835            0            0 
       45000    134.41321   -23.056987   -546.01873    400.25957    -946.2783            0            0            0            0    -946.2783   -63.374835            0            0 
       46000    129.50627   -51.643886   -563.57385    385.64757   -949.22142            0            0            0            0   -949.22142   -63.374835            0            0 
       47000    129.97017   -40.443037   -563.26205    387.02896   -950.29101            0            0            0            0   -950.29101   -63.374835            0            0 
       48000    120.24314   -56.461666   -589.03947    358.06355   -947.10302            0            0            0            0   -947.10302   -63.374835            0            0 
       49000    130.07357   -101.44275   -570.83139    387.33688   -958.16826            0            0            0            0   -958.16826   -63.374835            0            0 
       50000    130.47725   -83.897758   -563.25442    388.53898   -951.79339            0            0            0            0   -951.79339   -63.374835            0            0 
       51000    128.34282   -124.27472   -579.12961    382.18302   -961.31263            0            0            0            0   -961.31263   -63.374835            0            0 
       52000    131.19671   -48.870189   -557.72941    390.68141   -948.41082            0            0            0            0   -948.41082   -63.374835            0            0 
       53000    131.78321   -111.97893    -565.6928    392.42788   -958.12068            0            0            0            0   -958.12068   -63.374835            0            0 
       54000    138.81765   -48.171532   -541.34763    413.37526   -954.72288            0            0            0            0   -954.72288   -63.374835            0            0 
       55000    133.69508   -16.165499   -549.57578    398.12112   -947.69689            0            0            0            0   -947.69689   -63.374835            0            0 
       56000    127.80198    4.8515477   -558.24447    380.57249   -938.81696            0            0            0            0   -938.81696   -63.374835            0            0 
       57000    129.99033   -148.83939   -577.32159    387.08902    -964.4106            0            0            0            0    -964.4106   -63.374835            0            0 
       58000    134.98425   -31.436585   -551.96387    401.96006   -953.92393            0            0            0            0   -953.92393   -63.374835            0            0 
       59000    133.96873   -100.80317   -566.76902    398.93601   -965.70503            0            0            0            0   -965.70503   -63.374835            0            0 
       60000    126.52425   -7.6315413   -567.45272     376.7676   -944.22032            0            0            0            0   -944.22032   -63.374835            0            0 
       61000    133.72227   -41.539187   -556.97228    398.20209   -955.17437            0            0            0            0   -955.17437   -63.374835            0            0 
       62000    129.74321   -46.045644   -567.64562    386.35312   -953.99874            0            0            0            0   -953.99874   -63.374835            0            0 
       63000    127.46263   -67.631955   -583.10274    379.56196    -962.6647            0            0            0            0    -962.6647   -63.374835            0            0 
       64000    125.86285   -99.351396   -584.51698    374.79808   -959.31507            0            0            0            0   -959.31507   -63.374835            0            0 
       65000    123.06954   -60.172593   -589.73766    366.48006   -956.21773            0            0            0            0   -956.21773   -63.374835            0            0 
       66000    135.55106   -49.778958   -553.44655    403.64791   -957.09446            0            0            0            0   -957.09446   -63.374835            0            0 
       67000    131.19758   -86.046081   -569.11031      390.684    -959.7943            0            0            0            0    -959.7943   -63.374835            0            0 
       68000    133.93389   -68.601265   -561.15396    398.83226   -959.98622            0            0            0            0   -959.98622   -63.374835            0            0 
       69000    134.20938   -126.22531   -566.20012    399.65262   -965.85274            0            0            0            0   -965.85274   -63.374835            0            0 
       70000    128.30848   -55.270263   -570.19435    382.08073   -952.27508            0            0            0            0   -952.27508   -63.374835            0            0 
       71000    134.74411  0.087945658   -545.08759    401.24494   -946.33252            0            0            0            0   -946.33252   -63.374835            0            0 
       72000     124.6882   -25.925248    -568.1137    371.30017   -939.41387            0            0            0            0   -939.41387   -63.374835            0            0 
       73000    128.99771   -46.501044   -569.78713    384.13316   -953.92029            0            0            0            0   -953.92029   -63.374835            0            0 
       74000    124.26841   -67.726816   -581.76309    370.05011    -951.8132            0            0            0            0    -951.8132   -63.374835            0            0 
       75000    129.94201   -109.51377   -576.88722    386.94513   -963.83235            0            0            0            0   -963.83235   -63.374835            0            0 
       76000    127.90604   -86.524757   -582.10609    380.88234   -962.98843            0            0            0            0   -962.98843   -63.374835            0            0 
       77000    130.22815   -86.122472     -573.771    387.79718   -961.56818            0            0            0            0   -961.56818   -63.374835            0            0 
       78000    133.03859   -67.600694   -563.53332    396.16621   -959.69953            0            0            0            0   -959.69953   -63.374835            0            0 
       79000    134.39552   -7.6936174   -548.87106     400.2069   -949.07796            0            0            0            0   -949.07796   -63.374835            0            0 
       80000    129.22629    -56.79469   -571.37604    384.81381   -956.18985            0            0            0            0   -956.18985   -63.374835            0            0 
       81000    130.60612   -77.477505   -574.40931    388.92271   -963.33202            0            0            0            0   -963.33202   -63.374835            0            0 
       82000    125.58063   -97.832238   -589.73267    373.95766   -963.69032            0            0            0            0   -963.69032   -63.374835            0            0 
       83000    132.85346   -79.025138   -571.15341    395.61492   -966.76833            0            0            0            0   -966.76833   -63.374835            0            0 
       84000    127.57188   -58.852135    -575.2329    379.88726   -955.12016            0            0            0            0   -955.12016   -63.374835            0            0 
       85000    130.12936   -34.919033   -560.72841    387.50302   -948.23143            0            0            0            0   -948.23143   -63.374835            0            0 
       86000    135.86611   -91.711154   -561.59985    404.58608   -966.18593            0            0            0            0   -966.18593   -63.374835            0            0 
       87000    128.07687   -66.264785   -571.60606    381.39104    -952.9971            0            0            0            0    -952.9971   -63.374835            0            0 
       88000    133.45294   -32.994006    -553.7494    397.40007   -951.14947            0            0            0            0   -951.14947   -63.374835            0            0 
       89000    126.20302   -47.749856   -572.96897    375.81103      -948.78            0            0            0            0      -948.78   -63.374835            0            0 
       90000    132.59319   -93.240671   -567.46506    394.83986   -962.30492            0            0            0            0   -962.30492   -63.374835            0            0 
       91000    126.96203   -39.938692   -570.93929    378.07124   -949.01053            0            0            0            0   -949.01053   -63.374835            0            0 
       92000    129.20779   -57.226748   -564.41746    384.75873   -949.17619            0            0            0            0   -949.17619   -63.374835            0            0 
       93000    130.35671    -109.8199   -574.05201    388.18003   -962.23204            0            0            0            0   -962.23204   -63.374835            0            0 
       94000    124.92364   -84.448053   -582.28748    372.00126   -954.28874            0            0            0            0   -954.28874   -63.374835            0            0 
       95000    130.84075   -113.14648   -569.62612    389.62142   -959.24754            0            0            0            0   -959.24754   -63.374835            0            0 
       96000    132.02249   -6.8042461   -552.94589    393.14043   -946.08632            0            0            0            0   -946.08632   -63.374835            0            0 
       97000    134.87606   -31.156739   -551.18229    401.63787   -952.82015            0            0            0            0   -952.82015   -63.374835            0            0 
       98000    128.83232   -10.160793   -568.87865    383.64064   -952.51929            0            0            0            0   -952.51929   -63.374835            0            0 
       99000     132.6291   -50.338966   -555.46679    394.94681    -950.4136            0            0            0            0    -950.4136   -63.374835            0            0 
      100000    129.35686   -94.354935   -570.32158    385.20263   -955.52421            0            0            0            0   -955.52421   -63.374835            0            0 
Loop time of 21.711 on 1 procs for 25000 steps with 1000 atoms

Performance: 397.955 ns/day, 0.060 hours/ns, 1151.491 timesteps/s
99.5% CPU use with 1 MPI tasks x no OpenMP threads

MPI task timing breakdown:
Section |  min time  |  avg time  |  max time  |%varavg| %total
---------------------------------------------------------------
Pair    | 19.431     | 19.431     | 19.431     |   0.0 | 89.50
Bond    | 0.0020521  | 0.0020521  | 0.0020521  |   0.0 |  0.01
Neigh   | 1.4086     | 1.4086     | 1.4086     |   0.0 |  6.49
Comm    | 0.39499    | 0.39499    | 0.39499    |   0.0 |  1.82
Output  | 0.0012825  | 0.0012825  | 0.0012825  |   0.0 |  0.01
Modify  | 0.37923    | 0.37923    | 0.37923    |   0.0 |  1.75
Other   |            | 0.09373    |            |       |  0.43

Nlocal:    1000 ave 1000 max 1000 min
Histogram: 1 0 0 0 0 0 0 0 0 0
Nghost:    2983 ave 2983 max 2983 min
Histogram: 1 0 0 0 0 0 0 0 0 0
Neighs:    54419 ave 54419 max 54419 min
Histogram: 1 0 0 0 0 0 0 0 0 0

Total # of neighbors = 54419
Ave neighs/atom = 54.419
Ave special neighs/atom = 0
Neighbor list builds = 665
Dangerous builds = 2
Setting up Verlet run ...
  Unit style    : real
  Current step  : 0
  Time step     : 4
Per MPI rank memory allocation (min/avg/max) = 5.82 | 5.82 | 5.82 Mbytes
Time Temp Press TotEng KinEng PotEng E_bond E_angle E_dihed E_impro E_vdwl E_tail E_coul E_long 
      100000    129.35686   -94.354935   -570.32158    385.20263   -955.52421            0            0            0            0   -955.52421   -63.374835            0            0 
      102000    122.16892    73.327581   -752.36898    363.79819   -1116.1672            0            0            0            0   -1116.1672   -74.792561            0            0 
      104000    129.60842    93.884388   -758.20715    385.95174   -1144.1589            0            0            0            0   -1144.1589   -76.958432            0            0 
      106000     129.7287    140.74782   -729.24102     386.3099   -1115.5509            0            0            0            0   -1115.5509   -75.230867            0            0 
      108000    133.30393    147.64037   -739.85896    396.95633   -1136.8153            0            0            0            0   -1136.8153   -76.584314            0            0 
      110000    132.03044    89.371623   -725.04599    393.16411   -1118.2101            0            0            0            0   -1118.2101    -75.20993            0            0 
      112000    128.61142    136.79736    -732.7373    382.98286   -1115.7202            0            0            0            0   -1115.7202   -75.112417            0            0 
      114000    134.08264    122.93374   -715.16919     399.2752   -1114.4444            0            0            0            0   -1114.4444   -75.013301            0            0 
      116000    128.60258    37.699226   -727.78954    382.95651    -1110.746            0            0            0            0    -1110.746   -74.347158            0            0 
      118000    129.89894    69.952408   -734.28698    386.81686   -1121.1038            0            0            0            0   -1121.1038   -75.001813            0            0 
      120000    134.64466    174.86605   -722.55764    400.94881   -1123.5064            0            0            0            0   -1123.5064   -75.959551            0            0 
      122000    125.08112    98.143565   -710.85194    372.47022   -1083.3222            0            0            0            0   -1083.3222   -73.355405            0            0 
      124000    129.37493   -2.2659019   -731.38895    385.25646   -1116.6454            0            0            0            0   -1116.6454   -73.583567            0            0 
      126000    124.40878    82.635137    -770.0339    370.46811    -1140.502            0            0            0            0    -1140.502   -76.624737            0            0 
      128000    126.47174    54.410401   -749.13547    376.61124   -1125.7467            0            0            0            0   -1125.7467   -75.172934            0            0 
      130000    133.27699    209.54395   -736.41948    396.87613   -1133.2956            0            0            0            0   -1133.2956    -76.77504            0            0 
      132000    123.76602    133.75632   -748.49853    368.55407   -1117.0526            0            0            0            0   -1117.0526   -75.588739            0            0 
      134000    134.96518    184.47293   -740.18849    401.90326   -1142.0918            0            0            0            0   -1142.0918   -77.117948            0            0 
      136000    129.41422    63.610588   -737.65612    385.37346   -1123.0296            0            0            0            0   -1123.0296   -75.094918            0            0 
      138000    129.18044    98.934946   -738.06523    384.67728   -1122.7425            0            0            0            0   -1122.7425     -75.3878            0            0 
      140000    138.21089    117.20943   -694.82929    411.56842   -1106.3977            0            0            0            0   -1106.3977    -74.48585            0            0 
      142000    125.36029    146.66521   -772.10816    373.30153   -1145.4097            0            0            0            0   -1145.4097   -77.492677            0            0 
      144000     123.0741    89.676718   -733.87321    366.49364   -1100.3669            0            0            0            0   -1100.3669   -74.333299            0            0 
      146000    134.89221    174.30515   -720.68411    401.68598   -1122.3701            0            0            0            0   -1122.3701   -75.697392            0            0 
      148000    128.83785    96.418168   -706.33133    383.65712   -1089.9884            0            0            0            0   -1089.9884   -73.378484            0            0 
      150000    133.73546    74.787809   -735.38674    398.24135   -1133.6281            0            0            0            0   -1133.6281    -75.86876            0            0 
      152000    131.50589    130.64635   -739.51297    391.60207    -1131.115            0            0            0            0    -1131.115   -76.184998            0            0 
      154000    134.06631    117.83986   -708.75789    399.22659   -1107.9845            0            0            0            0   -1107.9845   -74.610206            0            0 
      156000    134.70733    123.51063   -709.56396    401.13542   -1110.6994            0            0            0            0   -1110.6994   -74.819087            0            0 
      158000     132.0471    99.513124   -722.23393     393.2137   -1115.4476            0            0            0            0   -1115.4476    -74.93918            0            0 
      160000    121.41627    61.112024   -755.03358    361.55691   -1116.5905            0            0            0            0   -1116.5905    -74.99763            0            0 
      162000     129.6872    114.17833   -721.24427    386.18634   -1107.4306            0            0            0            0   -1107.4306   -74.777493            0            0 
      164000    130.77691    124.91355   -729.12398     389.4313   -1118.5553            0            0            0            0   -1118.5553    -75.53284            0            0 
      166000    127.04142    117.23725   -760.88248    378.30764   -1139.1901            0            0            0            0   -1139.1901   -76.554967            0            0 
      168000    135.01778    147.76103   -703.43327    402.05988   -1105.4931            0            0            0            0   -1105.4931   -75.070345            0            0 
      170000    127.57218    124.12342   -748.08522    379.88817   -1127.9734            0            0            0            0   -1127.9734    -76.13923            0            0 
      172000    130.55738    131.12917   -748.00054    388.77759   -1136.7781            0            0            0            0   -1136.7781   -76.681423            0            0 
      174000    131.03664    121.17733   -726.87943    390.20474   -1117.0842            0            0            0            0   -1117.0842   -75.119058            0            0 
      176000    130.59213   -1.4292086   -720.83094    388.88108    -1109.712            0            0            0            0    -1109.712   -73.783205            0            0 
      178000    126.40862    155.60767   -755.05021    376.42329   -1131.4735            0            0            0            0   -1131.4735   -76.446361            0            0 
      180000    133.31909    117.26607   -725.32902     397.0015   -1122.3305            0            0            0            0   -1122.3305   -75.678129            0            0 
      182000    125.87671    110.07071    -752.6687    374.83934    -1127.508            0            0            0            0    -1127.508   -76.151106            0            0 
      184000     134.9406    125.00323   -727.08886    401.83007   -1128.9189            0            0            0            0   -1128.9189   -75.766613            0            0 
      186000    137.83295    113.39514   -715.15312    410.44298   -1125.5961            0            0            0            0   -1125.5961   -75.599669            0            0 
      188000    129.57698    73.359883   -728.36882    385.85813    -1114.227            0            0            0            0    -1114.227   -74.690565            0            0 
      190000    130.05533    141.72075   -728.63853    387.28256   -1115.9211            0            0            0            0   -1115.9211   -75.207604            0            0 
      192000    127.77161    64.253469   -712.61774    380.48204   -1093.0998            0            0            0            0   -1093.0998   -73.386142            0            0 
      194000    132.50053    144.68892   -717.66207    394.56395    -1112.226            0            0            0            0    -1112.226   -75.236296            0            0 
      196000    127.47161    74.405763   -754.69918    379.58869   -1134.2879            0            0            0            0   -1134.2879   -75.783889            0            0 
      198000    132.68331    135.54104   -729.24214    395.10824   -1124.3504            0            0            0            0   -1124.3504   -75.589702            0            0 
      200000     127.5197    56.956725   -757.49489     379.7319   -1137.2268            0            0            0            0   -1137.2268   -75.945076            0            0 
      202000    129.43892    163.18499   -745.03631    385.44701   -1130.4833            0            0            0            0   -1130.4833   -76.431324            0            0 
      204000    135.16577    108.75612   -720.07769    402.50058   -1122.5783            0            0            0            0   -1122.5783   -75.431339            0            0 
      206000    127.83428    90.262912   -729.64081    380.66866   -1110.3095            0            0            0            0   -1110.3095   -75.017575            0            0 
      208000     133.2612    154.69384   -730.93252     396.8291   -1127.7616            0            0            0            0   -1127.7616   -76.177036            0            0 
      210000    126.46549    137.61395   -750.97206    376.59264   -1127.5647            0            0            0            0   -1127.5647   -76.054299            0            0 
      212000    131.89961    175.18478   -717.28891    392.77451   -1110.0634            0            0            0            0   -1110.0634   -75.455006            0            0 
      214000    129.15958    86.089124   -726.58294    384.61519   -1111.1981            0            0            0            0   -1111.1981   -74.781156            0            0 
      216000    130.20539    81.464557   -744.69483    387.72941   -1132.4242            0            0            0            0   -1132.4242   -75.858405            0            0 
      218000    132.13731    145.24724   -705.30131    393.48233   -1098.7836            0            0            0            0   -1098.7836   -74.516902            0            0 
      220000    131.85587     168.1278   -737.40161    392.64425   -1130.0459            0            0            0            0   -1130.0459   -76.177018            0            0 
      222000    134.57605    62.206595   -717.57887    400.74449   -1118.3234            0            0            0            0   -1118.3234   -74.725678            0            0 
      224000    133.98882    163.09762   -711.10035    398.99582   -1110.0962            0            0            0            0   -1110.0962   -75.468107            0            0 
      226000    130.52683    169.09256   -718.01556    388.68662   -1106.7022            0            0            0            0   -1106.7022   -75.142977            0            0 
      228000    130.65877    144.94271   -733.48836    389.07952   -1122.5679            0            0            0            0   -1122.5679   -75.732913            0            0 
      230000    126.24758   -2.6997923   -755.23234    375.94373   -1131.1761            0            0            0            0   -1131.1761   -75.256858            0            0 
      232000    132.23723    80.499618   -727.75285    393.77988   -1121.5327            0            0            0            0   -1121.5327   -75.334893            0            0 
      234000    129.22545    236.53406   -725.76932    384.81131   -1110.5806            0            0            0            0   -1110.5806   -76.136086            0            0 
      236000    128.83604    168.25741   -732.75359    383.65171   -1116.4053            0            0            0            0   -1116.4053   -75.739567            0            0 
      238000     125.8033    239.14462   -748.05681    374.62076   -1122.6776            0            0            0            0   -1122.6776    -76.88729            0            0 
      240000    135.21286     133.9294   -712.03754    402.64081   -1114.6784            0            0            0            0   -1114.6784   -75.322994            0            0 
      242000    134.09512    98.377191    -727.9688    399.31237   -1127.2812            0            0            0            0   -1127.2812   -75.661744            0            0 
      244000    134.76746    93.715855   -713.98715    401.31448   -1115.3016            0            0            0            0   -1115.3016   -74.834802            0            0 
      246000    128.38509    39.113778   -737.56661    382.30887   -1119.8755            0            0            0            0   -1119.8755   -74.764748            0            0 
      248000    134.33525    7.3170053   -697.33292    400.02744   -1097.3604            0            0            0            0   -1097.3604   -73.219225            0            0 
      250000    122.79184    84.734904   -746.90792    365.65313    -1112.561            0            0            0            0    -1112.561   -74.705407            0            0 
      252000    130.97838    112.13115    -706.7673    390.03125   -1096.7986            0            0            0            0   -1096.7986   -74.109097            0            0 
      254000    134.35846    144.63792    -715.6617    400.09656   -1115.7583            0            0            0            0   -1115.7583   -75.288665            0            0 
      256000    130.19444  -0.42485152   -751.82338    387.69682   -1139.5202            0            0            0            0   -1139.5202   -75.573838            0            0 
      258000     128.1749     74.67829   -719.55801    381.68296    -1101.241            0            0            0            0    -1101.241   -74.251536            0            0 
      260000    130.57941    157.23311   -736.52856    388.84318   -1125.3717            0            0            0            0   -1125.3717   -76.117028            0            0 
      262000    135.10354    134.91377   -728.70563    402.31527   -1131.0209            0            0            0            0   -1131.0209   -75.809019            0            0 
      264000    127.32056    143.59269    -727.6666     379.1389   -1106.8055            0            0            0            0   -1106.8055   -75.038442            0            0 
      266000    129.63654    146.11541   -732.46718    386.03547   -1118.5026            0            0            0            0   -1118.5026   -75.761723            0            0 
      268000     123.5401    57.717105   -764.03066    367.88134    -1131.912            0            0            0            0    -1131.912   -76.006204            0            0 
      270000    127.95386    64.581668   -749.70418    381.02474   -1130.7289            0            0            0            0   -1130.7289    -75.64542            0            0 
      272000    133.16882    117.82198   -737.95283      396.554   -1134.5068            0            0            0            0   -1134.5068    -76.08884            0            0 
      274000    133.85403    76.347518   -710.85473    398.59446   -1109.4492            0            0            0            0   -1109.4492   -74.126813            0            0 
      276000    127.59459    20.788569   -743.45773    379.95491   -1123.4126            0            0            0            0   -1123.4126   -74.849124            0            0 
      278000    130.27785    135.51699   -738.30873    387.94519   -1126.2539            0            0            0            0   -1126.2539   -75.908147            0            0 
      280000    137.55446    124.73714   -708.00388    409.61369   -1117.6176            0            0            0            0   -1117.6176   -75.182725            0            0 
      282000    131.53679     86.73284   -750.41953     391.6941   -1142.1136            0            0            0            0   -1142.1136   -76.616752            0            0 
      284000    128.75065    67.838807   -757.22134    383.39744   -1140.6188            0            0            0            0   -1140.6188   -76.202562            0            0 
      286000    128.88406   -3.3827932   -755.77818    383.79471   -1139.5729            0            0            0            0   -1139.5729   -75.377037            0            0 
      288000    131.11968      154.118    -705.2716    390.45202   -1095.7236            0            0            0            0   -1095.7236   -74.214919            0            0 
      290000    127.75036    65.375693   -734.78318    380.41875   -1115.2019            0            0            0            0   -1115.2019   -75.006023            0            0 
      292000    127.00312    117.15908   -758.45894    378.19361   -1136.6526            0            0            0            0   -1136.6526    -76.81613            0            0 
      294000    121.15236   -21.399318   -747.06703    360.77103   -1107.8381            0            0            0            0   -1107.8381   -73.991767            0            0 
      296000    123.79997    62.907688   -729.06274    368.65517   -1097.7179            0            0            0            0   -1097.7179   -73.920002            0            0 
      298000    134.19967    48.701153   -712.43317    399.62372   -1112.0569            0            0            0            0   -1112.0569    -74.15487            0            0 
      300000    126.91094    40.983097   -743.34902    377.91911   -1121.2681            0            0            0            0   -1121.2681   -75.111405            0            0 
Loop time of 53.5136 on 1 procs for 50000 steps with 1000 atoms

Performance: 322.909 ns/day, 0.074 hours/ns, 934.342 timesteps/s
99.0% CPU use with 1 MPI tasks x no OpenMP threads

MPI task timing breakdown:
Section |  min time  |  avg time  |  max time  |%varavg| %total
---------------------------------------------------------------
Pair    | 47.43      | 47.43      | 47.43      |   0.0 | 88.63
Bond    | 0.004739   | 0.004739   | 0.004739   |   0.0 |  0.01
Neigh   | 3.2488     | 3.2488     | 3.2488     |   0.0 |  6.07
Comm    | 0.88978    | 0.88978    | 0.88978    |   0.0 |  1.66
Output  | 0.01155    | 0.01155    | 0.01155    |   0.0 |  0.02
Modify  | 1.7125     | 1.7125     | 1.7125     |   0.0 |  3.20
Other   |            | 0.216      |            |       |  0.40

Nlocal:    1000 ave 1000 max 1000 min
Histogram: 1 0 0 0 0 0 0 0 0 0
Nghost:    3320 ave 3320 max 3320 min
Histogram: 1 0 0 0 0 0 0 0 0 0
Neighs:    64446 ave 64446 max 64446 min
Histogram: 1 0 0 0 0 0 0 0 0 0

Total # of neighbors = 64446
Ave neighs/atom = 64.446
Ave special neighs/atom = 0
Neighbor list builds = 1418
Dangerous builds = 0
Total wall time: 0:01:15
