 *******************************************************************************
 ** Site#: 26757        For non-commercial use only    Version 19.255M 64BITS **
 *******************************************************************************
 ** Cite this program as: MOPAC2016, Version: 19.255M, James J. P. Stewart,   **
 ** Stewart Computational Chemistry, web: HTTP://OpenMOPAC.net. Days left: 358**
 *******************************************************************************
 **                                                                           **
 **                                MOPAC2016                                  **
 **                                                                           **
 *******************************************************************************

                              PM7 CALCULATION RESULTS

 *******************************************************************************
 *  CALCULATION DONE:                                Thu Sep 19 16:40:27 2019  *
 *  PM7        - The PM7 Hamiltonian to be used
 *  PRECISE    - CRITERIA TO BE INCREASED BY 100 TIMES
 *  T=         - A TIME OF 172800.0 SECONDS REQUESTED
 *  DUMP=N     - RESTART FILE WRITTEN EVERY  7200.000 SECONDS
 *  AUX        - OUTPUT AUXILIARY INFORMATION
 *******************************************************************************
PM7 PRECISE AUX
 Run from MolSSI flowchart
 A structural optimization using PM7 hamiltonian
   ATOM   CHEMICAL          X               Y               Z
  NUMBER   SYMBOL      (ANGSTROMS)     (ANGSTROMS)     (ANGSTROMS)
 
     1       C         -0.76266000  *   1.17421000  *   0.00289308  *
     2       H         -1.35535000  *   2.08509000  *   0.00340523  *
     3       C          0.63018700  *   1.24844000  *   0.00059358  *
     4       H          1.12269000  *   2.21717000  *  -0.00068612  *
     5       C          1.39090000  *   0.07932030  *  -0.00006396  *
     6       H          2.47609000  *   0.13716000  *  -0.00185583  *
     7       C          0.75877400  *  -1.16404000  *   0.00157805  *
     8       H          1.35146000  *  -2.07492000  *   0.00106553  *
     9       C         -0.63407300  *  -1.23828000  *   0.00387874  *
    10       H         -1.12658000  *  -2.20700000  *   0.00515876  *
    11       C         -1.39479000  *  -0.06915620  *   0.00453632  *
    12       H         -2.47998000  *  -0.12699600  *   0.00632852  *
 


          CARTESIAN COORDINATES 

    NO.       ATOM           X           Y           Z

     1         C         -0.7627      1.1742      0.0029
     2         H         -1.3554      2.0851      0.0034
     3         C          0.6302      1.2484      0.0006
     4         H          1.1227      2.2172     -0.0007
     5         C          1.3909      0.0793     -0.0001
     6         H          2.4761      0.1372     -0.0019
     7         C          0.7588     -1.1640      0.0016
     8         H          1.3515     -2.0749      0.0011
     9         C         -0.6341     -1.2383      0.0039
    10         H         -1.1266     -2.2070      0.0052
    11         C         -1.3948     -0.0692      0.0045
    12         H         -2.4800     -0.1270      0.0063

 General Reference for PM7:
 "Optimization of Parameters for Semiempirical Methods VI: More Modifications to the 
 NDDO Approximations and Re-optimization of Parameters", J. J. P. Stewart, J. Mol. Mod., 1:32, 19 (2013)
 http://www.springerlink.com/openurl.asp?genre=article&id=doi:10.1007/s00894-012-1667-x

           Empirical Formula: C6 H6  =    12 atoms



      MOLECULAR POINT GROUP   :   D6h 


      RHF CALCULATION, NO. OF DOUBLY OCCUPIED LEVELS = 15


          Geometry optimization using EF

          DIAGONAL MATRIX USED AS START HESSIAN

 CYCLE:     1 TIME:   0.000 TIME LEFT:  2.00D  GRAD.:     4.594 HEAT:  22.96145
 CYCLE:     2 TIME:   0.004 TIME LEFT:  2.00D  GRAD.:     3.180 HEAT:  22.95891
 CYCLE:     3 TIME:   0.000 TIME LEFT:  2.00D  GRAD.:     1.001 HEAT:  22.95669
 CYCLE:     4 TIME:   0.004 TIME LEFT:  2.00D  GRAD.:     1.872 HEAT:  22.95712
 CYCLE:     5 TIME:   0.000 TIME LEFT:  2.00D  GRAD.:     0.876 HEAT:  22.95663
 CYCLE:     6 TIME:   0.004 TIME LEFT:  2.00D  GRAD.:     2.354 HEAT:  22.95746
 CYCLE:     7 TIME:   0.000 TIME LEFT:  2.00D  GRAD.:     0.039 HEAT:  22.95650

     GRADIENT =  0.03857 IS LESS THAN CUTOFF =  0.05000



 -------------------------------------------------------------------------------
 PM7 PRECISE AUX
 Run from MolSSI flowchart
 A structural optimization using PM7 hamiltonian


     GEOMETRY OPTIMISED USING EIGENVECTOR FOLLOWING (EF).     
     SCF FIELD WAS ACHIEVED                                   


                              PM7 CALCULATION
                                                       MOPAC2016 (Version: 19.255M)
                                                       Thu Sep 19 16:40:27 2019
                                                       No. of days remaining = 358




          FINAL HEAT OF FORMATION =         22.95650 KCAL/MOL =      96.05000 KJ/MOL


          TOTAL ENERGY            =       -817.56195 EV
          ELECTRONIC ENERGY       =      -3251.15058 EV  POINT GROUP:     D6h 
          CORE-CORE REPULSION     =       2433.58863 EV
          COSMO AREA              =        119.70 SQUARE ANGSTROMS
          COSMO VOLUME            =        108.36 CUBIC ANGSTROMS

          GRADIENT NORM           =          0.03857 = 0.01113 PER ATOM
          IONIZATION POTENTIAL    =          9.824104 EV
          HOMO LUMO ENERGIES (EV) =         -9.824  0.236
          NO. OF FILLED LEVELS    =         15
          MOLECULAR WEIGHT        =         78.1134

          MOLECULAR DIMENSIONS (Angstroms)

            Atom       Atom       Distance
            H    12    H     6     4.96379
            H     8    H     2     4.29874
            C     7    C     5     0.00001


          SCF CALCULATIONS        =          9
 
          WALL-CLOCK TIME         =          0.023 SECONDS
          COMPUTATION TIME        =          0.022 SECONDS




   ATOM   CHEMICAL          X               Y               Z
  NUMBER   SYMBOL      (ANGSTROMS)     (ANGSTROMS)     (ANGSTROMS)
 
     1       C         -0.76221161  *   1.17350813  *   0.00289514  *
     2       H         -1.35548613  *   2.08535987  *   0.00340512  *
     3       C          0.62981553  *   1.24770823  *   0.00059198  *
     4       H          1.12279935  *   2.21743683  *  -0.00068629  *
     5       C          1.39008345  *   0.07927724  *  -0.00005942  *
     6       H          2.47642716  *   0.13718306  *  -0.00185725  *
     7       C          0.75832369  *  -1.16334277  *   0.00157539  *
     8       H          1.35159820  *  -2.07519476  *   0.00106573  *
     9       C         -0.63370324  *  -1.23754257  *   0.00388063  *
    10       H         -1.12668853  *  -2.20727081  *   0.00515886  *
    11       C         -1.39397131  *  -0.06911181  *   0.00453212  *
    12       H         -2.48031496  *  -0.12701833  *   0.00632977  *

                             CARTESIAN COORDINATES

   1    C       -0.762211607     1.173508130     0.002895144
   2    H       -1.355486130     2.085359874     0.003405121
   3    C        0.629815532     1.247708232     0.000591983
   4    H        1.122799351     2.217436828    -0.000686288
   5    C        1.390083454     0.079277241    -0.000059419
   6    H        2.476427162     0.137183057    -0.001857250
   7    C        0.758323686    -1.163342766     0.001575386
   8    H        1.351598202    -2.075194756     0.001065727
   9    C       -0.633703236    -1.237542568     0.003880633
  10    H       -1.126688533    -2.207270806     0.005158863
  11    C       -1.393971306    -0.069111814     0.004532125
  12    H       -2.480314955    -0.127018332     0.006329769


           Empirical Formula: C6 H6  =    12 atoms



      MOLECULAR POINT GROUP   :   D6h 


                  EIGENVALUES  
 -30.44020 -25.82695 -25.82678 -20.91320 -20.91314 -18.07152 -15.39328 -15.22182
 -14.25893 -14.25889 -13.42653 -11.93850 -11.93834  -9.82414  -9.82410   0.23607
   0.23613   2.57965   4.42400   4.42412   5.04615   5.33822   5.33829   5.52245
   5.83308   6.11538   6.11558   6.19444   6.19455   6.41101


              NET ATOMIC CHARGES AND DIPOLE CONTRIBUTIONS

  ATOM NO.   TYPE          CHARGE      No. of ELECS.   s-Pop       p-Pop       
    1          C          -0.148075        4.1481     1.08350     3.06457
    2          H           0.148073        0.8519     0.85193
    3          C          -0.148074        4.1481     1.08350     3.06457
    4          H           0.148071        0.8519     0.85193
    5          C          -0.148072        4.1481     1.08350     3.06457
    6          H           0.148077        0.8519     0.85192
    7          C          -0.148075        4.1481     1.08350     3.06457
    8          H           0.148073        0.8519     0.85193
    9          C          -0.148075        4.1481     1.08350     3.06457
   10          H           0.148071        0.8519     0.85193
   11          C          -0.148072        4.1481     1.08350     3.06457
   12          H           0.148077        0.8519     0.85192
 DIPOLE           X         Y         Z       TOTAL
 POINT-CHG.    -0.000    -0.000     0.000     0.000
 HYBRID        -0.000     0.000     0.000     0.000
 SUM           -0.000    -0.000     0.000     0.000


          ATOMIC ORBITAL ELECTRON POPULATIONS

     Atom    s        px        py        pz   
    1  C   1.08350   1.01456   1.05002   1.00000
    2  H   0.85193
    3  C   1.08350   1.00650   1.05807   1.00000
    4  H   0.85193
    5  C   1.08350   1.07580   0.98877   1.00000
    6  H   0.85192
    7  C   1.08350   1.01456   1.05002   1.00000
    8  H   0.85193
    9  C   1.08350   1.00650   1.05807   1.00000
   10  H   0.85193
   11  C   1.08350   1.07580   0.98877   1.00000
   12  H   0.85192
 *******************************************************************************
 ** Site#: 26757        For non-commercial use only    Version 19.255M 64BITS **
 *******************************************************************************
 ** Cite this program as: MOPAC2016, Version: 19.255M, James J. P. Stewart,   **
 ** Stewart Computational Chemistry, web: HTTP://OpenMOPAC.net. Days left: 358**
 *******************************************************************************
 **                                                                           **
 **                                MOPAC2016                                  **
 **                                                                           **
 *******************************************************************************

                              PM7 CALCULATION RESULTS

 *******************************************************************************
 *  CALCULATION DONE:                                Thu Sep 19 16:40:27 2019  *
 *  PM7        - The PM7 Hamiltonian to be used
 *  OLDGEO     - PREVIOUS GEOMETRY TO BE USED
 *  T=         - A TIME OF 172800.0 SECONDS REQUESTED
 *  DUMP=N     - RESTART FILE WRITTEN EVERY  7200.000 SECONDS
 *  TRANS=     -    0 VIBRATIONS ARE TO BE DELETED FROM THE THERMO CALCULATION
 *  AUX        - OUTPUT AUXILIARY INFORMATION
 *  THERMO     - THERMODYNAMIC QUANTITIES TO BE CALCULATED
 *******************************************************************************
THERMO=(200.0,400.0,10.0) TRANS=0 PM7 OLDGEO AUX
 Run from MolSSI flowchart
 Thermodynamic functions using PM7 hamiltonian
   ATOM   CHEMICAL          X               Y               Z
  NUMBER   SYMBOL      (ANGSTROMS)     (ANGSTROMS)     (ANGSTROMS)
 
     1       C         -0.76221161  *   1.17350813  *   0.00289514  *
     2       H         -1.35548613  *   2.08535987  *   0.00340512  *
     3       C          0.62981553  *   1.24770823  *   0.00059198  *
     4       H          1.12279935  *   2.21743683  *  -0.00068629  *
     5       C          1.39008345  *   0.07927724  *  -0.00005942  *
     6       H          2.47642716  *   0.13718306  *  -0.00185725  *
     7       C          0.75832369  *  -1.16334277  *   0.00157539  *
     8       H          1.35159820  *  -2.07519476  *   0.00106573  *
     9       C         -0.63370324  *  -1.23754257  *   0.00388063  *
    10       H         -1.12668853  *  -2.20727081  *   0.00515886  *
    11       C         -1.39397131  *  -0.06911181  *   0.00453212  *
    12       H         -2.48031496  *  -0.12701833  *   0.00632977  *
 


          CARTESIAN COORDINATES 

    NO.       ATOM           X           Y           Z

     1         C         -0.7622      1.1735      0.0029
     2         H         -1.3555      2.0854      0.0034
     3         C          0.6298      1.2477      0.0006
     4         H          1.1228      2.2174     -0.0007
     5         C          1.3901      0.0793     -0.0001
     6         H          2.4764      0.1372     -0.0019
     7         C          0.7583     -1.1633      0.0016
     8         H          1.3516     -2.0752      0.0011
     9         C         -0.6337     -1.2375      0.0039
    10         H         -1.1267     -2.2073      0.0052
    11         C         -1.3940     -0.0691      0.0045
    12         H         -2.4803     -0.1270      0.0063

 General Reference for PM7:
 "Optimization of Parameters for Semiempirical Methods VI: More Modifications to the 
 NDDO Approximations and Re-optimization of Parameters", J. J. P. Stewart, J. Mol. Mod., 1:32, 19 (2013)
 http://www.springerlink.com/openurl.asp?genre=article&id=doi:10.1007/s00894-012-1667-x

           Empirical Formula: C6 H6  =    12 atoms



      MOLECULAR POINT GROUP   :   D6h 


      RHF CALCULATION, NO. OF DOUBLY OCCUPIED LEVELS = 15



          HEAT OF FORMATION =      22.956499 KCALS/MOLE


          CARTESIAN COORDINATE DERIVATIVES

   NUMBER  ATOM         X            Y            Z

     1       C     -0.001719    -0.005845    -0.001894
     2       H     -0.001792     0.004201     0.000068
     3       C      0.040043     0.047314     0.000770
     4       H     -0.011106    -0.019832     0.000077
     5       C      0.020091     0.002492    -0.000301
     6       H      0.005394     0.022583    -0.000026
     7       C     -0.049223    -0.045328     0.000405
     8       H     -0.001937    -0.007823     0.000253
     9       C      0.026113     0.019165    -0.001750
    10       H     -0.003907     0.004498     0.000016
    11       C     -0.038077    -0.020411     0.002509
    12       H      0.016117    -0.001016    -0.000127
 
 DIPOLE           X         Y         Z       TOTAL
 POINT-CHG.    -0.000    -0.000     0.000     0.000
 HYBRID         0.000    -0.000     0.000     0.000
 SUM           -0.000    -0.000     0.000     0.000


          GRADIENT NORM =   0.11460

          MOLECULAR WEIGHT =   78.11



          ROTATIONAL CONSTANTS IN CM(-1)

          A =    0.19016948   B =    0.19016781   C =    0.09508432



           PRINCIPAL MOMENTS OF INERTIA IN UNITS OF 10**(-40)*GRAM-CM**2

          A =      147.1991   B =      147.2004   C =      294.3995


          ORIENTATION OF MOLECULE IN FORCE CALCULATION

    NO.       ATOM         X         Y         Z

     1          C       1.3940   -0.0001   -0.0000
     2          H       2.4819   -0.0001   -0.0000
     3          C       0.6970    1.2072   -0.0000
     4          H       1.2410    2.1493   -0.0000
     5          C      -0.6970    1.2073   -0.0000
     6          H      -1.2409    2.1494   -0.0000
     7          C      -1.3940    0.0000   -0.0000
     8          H      -2.4819    0.0000   -0.0000
     9          C      -0.6970   -1.2072   -0.0000
    10          H      -1.2410   -2.1493   -0.0000
    11          C       0.6970   -1.2073    0.0000
    12          H       1.2409   -2.1494    0.0000


    FIRST DERIVATIVES WILL BE USED IN THE CALCULATION OF SECOND DERIVATIVES

    FOR POINT-GROUP D6h  THERE ARE  24 UNIQUE SYMMETRY FUNCTIONS.

 STEP:   1 TIME =     0.00 SECS, INTEGRAL =      0.00 TIME LEFT: 172800.00
 STEP:   2 TIME =     0.00 SECS, INTEGRAL =      0.00 TIME LEFT: 172800.00
 STEP:   3 TIME =     0.00 SECS, INTEGRAL =      0.01 TIME LEFT: 172799.99
 STEP:   4 TIME =     0.00 SECS, INTEGRAL =      0.01 TIME LEFT: 172799.99
 STEP:   5 TIME =     0.00 SECS, INTEGRAL =      0.01 TIME LEFT: 172799.99
 STEP:   6 TIME =     0.00 SECS, INTEGRAL =      0.02 TIME LEFT: 172799.98
 STEP:   7                       INTEGRAL =      0.02 TIME LEFT: 172799.98
 STEP:   8                       INTEGRAL =      0.02 TIME LEFT: 172799.98
 STEP:   9                       INTEGRAL =      0.02 TIME LEFT: 172799.98
 STEP:  10                       INTEGRAL =      0.02 TIME LEFT: 172799.98
 STEP:  11                       INTEGRAL =      0.02 TIME LEFT: 172799.98
 STEP:  12                       INTEGRAL =      0.02 TIME LEFT: 172799.98
 STEP:  13                       INTEGRAL =      0.02 TIME LEFT: 172799.98
 STEP:  14                       INTEGRAL =      0.02 TIME LEFT: 172799.98
 STEP:  15                       INTEGRAL =      0.02 TIME LEFT: 172799.98
 STEP:  16                       INTEGRAL =      0.02 TIME LEFT: 172799.98
 STEP:  17                       INTEGRAL =      0.02 TIME LEFT: 172799.98
 STEP:  18                       INTEGRAL =      0.02 TIME LEFT: 172799.98
 STEP:  19                       INTEGRAL =      0.02 TIME LEFT: 172799.98
 STEP:  20                       INTEGRAL =      0.02 TIME LEFT: 172799.98
 STEP:  21                       INTEGRAL =      0.02 TIME LEFT: 172799.98
 STEP:  22                       INTEGRAL =      0.02 TIME LEFT: 172799.98
 STEP:  23                       INTEGRAL =      0.02 TIME LEFT: 172799.98
 STEP:  24                       INTEGRAL =      0.02 TIME LEFT: 172799.98
 STEP:  25                       INTEGRAL =      0.02 TIME LEFT: 172799.98
 STEP:  26                       INTEGRAL =      0.02 TIME LEFT: 172799.98
 STEP:  27                       INTEGRAL =      0.02 TIME LEFT: 172799.98
 STEP:  28                       INTEGRAL =      0.02 TIME LEFT: 172799.98
 STEP:  29                       INTEGRAL =      0.02 TIME LEFT: 172799.98
 STEP:  30                       INTEGRAL =      0.02 TIME LEFT: 172799.98
 STEP:  31                       INTEGRAL =      0.02 TIME LEFT: 172799.98
 STEP:  32                       INTEGRAL =      0.02 TIME LEFT: 172799.98
 STEP:  33                       INTEGRAL =      0.02 TIME LEFT: 172799.98
 STEP:  34                       INTEGRAL =      0.02 TIME LEFT: 172799.98
 STEP:  35                       INTEGRAL =      0.02 TIME LEFT: 172799.98
 STEP:  36                       INTEGRAL =      0.02 TIME LEFT: 172799.98

(To convert to Hartree/Bohr^2, multiply by (10^(-21) x N x a0^2)/(4.184 x 627.51) =  0.0642)


           FORCE MATRIX IN MILLIDYNES/ANGSTROM


                  C  1       H  2       C  3       H  4       C  5       H  6
 ------------------------------------------------------------------------------
     C    1  15.366757
     H    2   3.472467   4.385638
     C    3   6.164918   0.747088  15.366757
     H    4   0.751216   0.028424   3.472467   4.385638
     C    5   2.200434   0.082525   6.164918   0.747088  15.366757
     H    6   0.087812   0.007566   0.751216   0.028424   3.472467   4.385638
     C    7   1.517571   0.009662   2.200434   0.082525   6.164918   0.747088
     H    8   0.008897   0.009080   0.087812   0.007566   0.751216   0.028424
     C    9   2.199597   0.081401   1.517571   0.009662   2.200434   0.082525
     H   10   0.087780   0.007753   0.008897   0.009080   0.087812   0.007566
     C   11   6.161827   0.756391   2.199597   0.081401   1.517571   0.009662
     H   12   0.751726   0.028589   0.087780   0.007753   0.008897   0.009080


                  C  7       H  8       C  9       H 10       C 11       H 12
 ------------------------------------------------------------------------------
     C    7  15.366757
     H    8   3.472467   4.385638
     C    9   6.164918   0.747088  15.366757
     H   10   0.751216   0.028424   3.472467   4.385638
     C   11   2.200434   0.082525   6.164918   0.747088  15.366757
     H   12   0.087812   0.007566   0.751216   0.028424   3.472467   4.385638


          HEAT OF FORMATION =      22.956499 KCALS/MOLE

          ZERO POINT ENERGY      60.595 KCAL/MOL


           NORMAL COORDINATE ANALYSIS (Total motion = 1 Angstrom)


   Root No.       1         2         3         4         5         6         7         8

                 1 E2u     1 E2u     1 E2g     1 E2g     1 B1g     1 A2u     1 E1g     1 E1g 

                 390.1     390.1     598.9     598.9     606.0     806.1     917.6     917.6
  
           1   -0.0000    0.0000    0.1137   -0.0289   -0.0000    0.0000   -0.0000   -0.0000
           2    0.0000   -0.0000   -0.0116   -0.0459    0.0000   -0.0000    0.0000    0.0000
           3    0.0680   -0.0182    0.0000    0.0000    0.0385   -0.0129    0.0325    0.0118
           4   -0.0000    0.0000    0.1054   -0.0268   -0.0000   -0.0000    0.0000    0.0000
           5    0.0000   -0.0000    0.0112    0.0443    0.0000    0.0000   -0.0000   -0.0000
           6    0.1820   -0.0487    0.0000   -0.0000    0.1282    0.1538   -0.2175   -0.0791
           7    0.0000    0.0000   -0.0115   -0.0707    0.0000    0.0000   -0.0000    0.0000
           8   -0.0000   -0.0000   -0.0878   -0.0563   -0.0000   -0.0000    0.0000   -0.0000
           9   -0.0497   -0.0498    0.0000   -0.0000   -0.0385   -0.0129    0.0271   -0.0207
          10    0.0000    0.0000   -0.0663   -0.0114    0.0000   -0.0000    0.0000   -0.0000
          11   -0.0000   -0.0000   -0.0494   -0.0835   -0.0000    0.0000   -0.0000    0.0000
          12   -0.1332   -0.1333   -0.0000   -0.0000   -0.1282    0.1538   -0.1812    0.1384
          13    0.0000   -0.0000   -0.0235   -0.0677   -0.0000    0.0000    0.0000    0.0000
          14   -0.0000    0.0000   -0.0504    0.0914    0.0000   -0.0000   -0.0000   -0.0000
          15   -0.0182    0.0680    0.0000   -0.0000    0.0385   -0.0129   -0.0054   -0.0325
          16    0.0000   -0.0000    0.0528   -0.0416   -0.0000   -0.0000   -0.0000   -0.0000
          17   -0.0000    0.0000   -0.0036    0.0970    0.0000    0.0000    0.0000    0.0000
          18   -0.0488    0.1820    0.0000   -0.0000    0.1282    0.1538    0.0363    0.2175
          19   -0.0000    0.0000   -0.1137    0.0289    0.0000    0.0000    0.0000    0.0000
          20    0.0000   -0.0000    0.0116    0.0459   -0.0000   -0.0000   -0.0000   -0.0000
          21    0.0680   -0.0182   -0.0000   -0.0000   -0.0385   -0.0129   -0.0325   -0.0118
          22   -0.0000    0.0000   -0.1054    0.0268    0.0000   -0.0000   -0.0000   -0.0000
          23    0.0000   -0.0000   -0.0112   -0.0443   -0.0000    0.0000    0.0000    0.0000
          24    0.1820   -0.0487   -0.0000    0.0000   -0.1282    0.1538    0.2175    0.0791
          25    0.0000    0.0000    0.0115    0.0707   -0.0000    0.0000    0.0000   -0.0000
          26   -0.0000   -0.0000    0.0878    0.0563    0.0000   -0.0000   -0.0000    0.0000
          27   -0.0497   -0.0498   -0.0000    0.0000    0.0385   -0.0129   -0.0271    0.0207
          28    0.0000    0.0000    0.0663    0.0114   -0.0000   -0.0000   -0.0000    0.0000
          29   -0.0000   -0.0000    0.0494    0.0835    0.0000    0.0000    0.0000   -0.0000
          30   -0.1332   -0.1333    0.0000    0.0000    0.1282    0.1538    0.1812   -0.1384
          31    0.0000   -0.0000    0.0235    0.0677    0.0000    0.0000   -0.0000   -0.0000
          32   -0.0000    0.0000    0.0504   -0.0914   -0.0000   -0.0000    0.0000    0.0000
          33   -0.0182    0.0680   -0.0000    0.0000   -0.0385   -0.0129    0.0054    0.0325
          34    0.0000   -0.0000   -0.0528    0.0416    0.0000   -0.0000    0.0000    0.0000
          35   -0.0000    0.0000    0.0036   -0.0970   -0.0000    0.0000   -0.0000   -0.0000
          36   -0.0488    0.1820   -0.0000    0.0000   -0.1282    0.1538   -0.0363   -0.2175


   Root No.       9        10        11        12        13        14        15        16

                 1 B2u     2 E2u     2 E2u     2 B1g     1 E1u     1 E1u     1 B1u     1 A1g 

                 937.8    1028.3    1028.3    1067.3    1164.6    1164.6    1198.8    1220.2
  
           1    0.0884    0.0000   -0.0000    0.0000    0.0090   -0.0310   -0.0000   -0.0845
           2   -0.0000   -0.0000    0.0000   -0.0000    0.0159    0.0045   -0.0277    0.0000
           3    0.0000   -0.0459    0.0122   -0.0364    0.0000   -0.0000    0.0000   -0.0000
           4    0.0782   -0.0000    0.0000   -0.0000    0.0075   -0.0260    0.0000   -0.0822
           5   -0.0000    0.0000   -0.0000    0.0000    0.2085    0.0594    0.1390    0.0000
           6   -0.0000    0.2041   -0.0543    0.1303   -0.0000   -0.0000   -0.0000   -0.0000
           7   -0.0442   -0.0000   -0.0000   -0.0000   -0.0216   -0.0017   -0.0240   -0.0422
           8   -0.0766    0.0000    0.0000    0.0000   -0.0136   -0.0258    0.0138   -0.0732
           9    0.0000    0.0335    0.0337    0.0364   -0.0000    0.0000   -0.0000    0.0000
          10   -0.0391    0.0000    0.0000    0.0000   -0.1446    0.1199    0.1204   -0.0411
          11   -0.0678   -0.0000   -0.0000   -0.0000    0.0617   -0.0917   -0.0695   -0.0712
          12    0.0000   -0.1490   -0.1499   -0.1303   -0.0000    0.0000    0.0000    0.0000
          13   -0.0442   -0.0000    0.0000    0.0000    0.0192    0.0099    0.0240    0.0422
          14    0.0766    0.0000   -0.0000   -0.0000   -0.0253    0.0147    0.0138   -0.0732
          15   -0.0000    0.0124   -0.0459   -0.0364    0.0000    0.0000    0.0000    0.0000
          16   -0.0391    0.0000   -0.0000   -0.0000    0.0586    0.1778   -0.1204    0.0411
          17    0.0678   -0.0000    0.0000    0.0000    0.0034    0.1102   -0.0695   -0.0712
          18    0.0000   -0.0551    0.2041    0.1303   -0.0000    0.0000   -0.0000    0.0000
          19    0.0884    0.0000   -0.0000   -0.0000    0.0090   -0.0310   -0.0000    0.0845
          20   -0.0000   -0.0000    0.0000    0.0000    0.0159    0.0045   -0.0277   -0.0000
          21    0.0000   -0.0459    0.0122    0.0364   -0.0000   -0.0000    0.0000    0.0000
          22    0.0782   -0.0000    0.0000    0.0000    0.0075   -0.0260    0.0000    0.0822
          23   -0.0000    0.0000   -0.0000   -0.0000    0.2085    0.0594    0.1390   -0.0000
          24    0.0000    0.2041   -0.0543   -0.1303   -0.0000   -0.0000   -0.0000    0.0000
          25   -0.0442   -0.0000   -0.0000    0.0000   -0.0216   -0.0017   -0.0240    0.0422
          26   -0.0766    0.0000    0.0000   -0.0000   -0.0136   -0.0258    0.0138    0.0732
          27   -0.0000    0.0335    0.0337   -0.0364   -0.0000   -0.0000   -0.0000   -0.0000
          28   -0.0391    0.0000    0.0000   -0.0000   -0.1446    0.1199    0.1204    0.0411
          29   -0.0678   -0.0000   -0.0000    0.0000    0.0617   -0.0917   -0.0695    0.0712
          30   -0.0000   -0.1490   -0.1499    0.1303   -0.0000    0.0000    0.0000   -0.0000
          31   -0.0442   -0.0000    0.0000   -0.0000    0.0192    0.0099    0.0240   -0.0422
          32    0.0766    0.0000   -0.0000    0.0000   -0.0253    0.0147    0.0138    0.0732
          33   -0.0000    0.0124   -0.0459    0.0364    0.0000   -0.0000    0.0000   -0.0000
          34   -0.0391    0.0000   -0.0000    0.0000    0.0586    0.1778   -0.1204   -0.0411
          35    0.0678   -0.0000    0.0000   -0.0000    0.0034    0.1102   -0.0695    0.0712
          36   -0.0000   -0.0551    0.2041   -0.1303    0.0000    0.0000   -0.0000   -0.0000


   Root No.      17        18        19        20        21        22        23        24

                 2 E2g     2 E2g     1 A2g     2 B1u     2 E1u     2 E1u     3 E2g     3 E2g 

                1263.7    1263.7    1370.5    1382.0    1550.6    1550.6    1703.6    1703.6
  
           1   -0.0015    0.0045    0.0000    0.0000    0.0134    0.0492    0.0216   -0.0671
           2   -0.0068   -0.0021    0.0217    0.0494    0.0650   -0.0177   -0.1691   -0.0540
           3   -0.0000    0.0000   -0.0000   -0.0000    0.0000    0.0000    0.0000    0.0000
           4   -0.0019    0.0059   -0.0000    0.0000    0.0102    0.0373    0.0092   -0.0286
           5   -0.2407   -0.0746   -0.1450    0.1172   -0.1516    0.0412    0.0411    0.0131
           6    0.0000    0.0000    0.0000   -0.0000    0.0000   -0.0000   -0.0000    0.0000
           7   -0.0062    0.0023   -0.0188    0.0428   -0.0594   -0.0230   -0.0902    0.1290
           8   -0.0002   -0.0054    0.0108   -0.0247   -0.0072    0.0550    0.1070   -0.0142
           9    0.0000    0.0000   -0.0000    0.0000   -0.0000   -0.0000   -0.0000    0.0000
          10   -0.1636    0.1418    0.1256    0.1015    0.0829    0.1095    0.0378   -0.0139
          11    0.0895   -0.0872   -0.0725   -0.0586   -0.0794   -0.0315    0.0015    0.0337
          12   -0.0000    0.0000    0.0000    0.0000    0.0000    0.0000    0.0000    0.0000
          13   -0.0037   -0.0054   -0.0188   -0.0428    0.0395   -0.0499    0.0020   -0.1572
          14    0.0033   -0.0043   -0.0108   -0.0247   -0.0341   -0.0438   -0.0787   -0.0735
          15    0.0000   -0.0000   -0.0000   -0.0000    0.0000   -0.0000    0.0000   -0.0000
          16   -0.0501   -0.2080    0.1256   -0.1015   -0.0160    0.1364    0.0226    0.0333
          17   -0.0217   -0.1216    0.0725   -0.0586   -0.0524    0.0674   -0.0209    0.0265
          18   -0.0000   -0.0000    0.0000   -0.0000   -0.0000    0.0000    0.0000   -0.0000
          19    0.0015   -0.0045   -0.0000    0.0000    0.0134    0.0492   -0.0216    0.0671
          20    0.0068    0.0021   -0.0217    0.0494    0.0650   -0.0177    0.1691    0.0540
          21    0.0000   -0.0000    0.0000    0.0000   -0.0000    0.0000   -0.0000   -0.0000
          22    0.0019   -0.0059    0.0000    0.0000    0.0102    0.0373   -0.0092    0.0286
          23    0.2407    0.0746    0.1450    0.1172   -0.1516    0.0412   -0.0411   -0.0131
          24   -0.0000   -0.0000   -0.0000    0.0000    0.0000    0.0000    0.0000   -0.0000
          25    0.0062   -0.0023    0.0188    0.0428   -0.0594   -0.0230    0.0902   -0.1290
          26    0.0002    0.0054   -0.0108   -0.0247   -0.0072    0.0550   -0.1070    0.0142
          27   -0.0000   -0.0000    0.0000    0.0000   -0.0000   -0.0000    0.0000   -0.0000
          28    0.1636   -0.1418   -0.1256    0.1015    0.0829    0.1095   -0.0378    0.0139
          29   -0.0895    0.0872    0.0725   -0.0586   -0.0794   -0.0315   -0.0015   -0.0337
          30    0.0000   -0.0000   -0.0000    0.0000    0.0000    0.0000   -0.0000   -0.0000
          31    0.0037    0.0054    0.0188   -0.0428    0.0395   -0.0499   -0.0020    0.1572
          32   -0.0033    0.0043    0.0108   -0.0247   -0.0341   -0.0438    0.0787    0.0735
          33   -0.0000    0.0000    0.0000   -0.0000    0.0000   -0.0000   -0.0000    0.0000
          34    0.0501    0.2080   -0.1256   -0.1015   -0.0160    0.1364   -0.0226   -0.0333
          35    0.0217    0.1216   -0.0725   -0.0586   -0.0524    0.0674    0.0209   -0.0265
          36    0.0000    0.0000   -0.0000   -0.0000    0.0000    0.0000   -0.0000    0.0000


   Root No.      25        26        27        28        29        30

                 2 B2u     4 E2g     4 E2g     3 E1u     3 E1u     2 A1g 

                2750.9    2756.4    2756.4    2762.8    2762.8    2774.5
  
           1   -0.0115    0.0168   -0.0044   -0.0174    0.0044    0.0126
           2    0.0000   -0.0009   -0.0034   -0.0005   -0.0021   -0.0000
           3   -0.0000    0.0000   -0.0000   -0.0000   -0.0000    0.0000
           4    0.1551   -0.2325    0.0617    0.2323   -0.0581   -0.1541
           5   -0.0000   -0.0002   -0.0009   -0.0000   -0.0002    0.0000
           6    0.0000   -0.0000    0.0000    0.0000   -0.0000   -0.0000
           7    0.0058   -0.0040   -0.0083   -0.0075   -0.0053    0.0063
           8    0.0100   -0.0118   -0.0094   -0.0100   -0.0121    0.0109
           9    0.0000    0.0000    0.0000   -0.0000    0.0000   -0.0000
          10   -0.0776    0.0854    0.0849    0.0829    0.0872   -0.0771
          11   -0.1344    0.1466    0.1482    0.1438    0.1508   -0.1334
          12    0.0000    0.0000   -0.0000   -0.0000   -0.0000    0.0000
          13    0.0058   -0.0007   -0.0092   -0.0042    0.0082   -0.0063
          14   -0.0100   -0.0056    0.0141    0.0033   -0.0154    0.0109
          15    0.0000   -0.0000   -0.0000   -0.0000    0.0000   -0.0000
          16   -0.0776   -0.0322    0.1161    0.0330   -0.1162    0.0770
          17    0.1344    0.0540   -0.2015   -0.0575    0.2011   -0.1334
          18   -0.0000   -0.0000    0.0000    0.0000   -0.0000    0.0000
          19   -0.0115   -0.0168    0.0044   -0.0174    0.0044   -0.0126
          20    0.0000    0.0009    0.0034   -0.0005   -0.0021    0.0000
          21   -0.0000   -0.0000    0.0000   -0.0000    0.0000   -0.0000
          22    0.1551    0.2325   -0.0617    0.2323   -0.0581    0.1541
          23   -0.0000    0.0002    0.0009   -0.0000   -0.0002   -0.0000
          24    0.0000    0.0000   -0.0000    0.0000   -0.0000    0.0000
          25    0.0058    0.0040    0.0083   -0.0075   -0.0053   -0.0063
          26    0.0100    0.0118    0.0094   -0.0100   -0.0121   -0.0109
          27   -0.0000   -0.0000   -0.0000    0.0000   -0.0000    0.0000
          28   -0.0776   -0.0854   -0.0849    0.0829    0.0872    0.0771
          29   -0.1344   -0.1466   -0.1482    0.1438    0.1508    0.1334
          30   -0.0000   -0.0000    0.0000    0.0000   -0.0000   -0.0000
          31    0.0058    0.0007    0.0092   -0.0042    0.0082    0.0063
          32   -0.0100    0.0056   -0.0141    0.0033   -0.0154   -0.0109
          33    0.0000    0.0000    0.0000   -0.0000    0.0000    0.0000
          34   -0.0776    0.0322   -0.1161    0.0330   -0.1162   -0.0770
          35    0.1344   -0.0540    0.2015   -0.0575    0.2011    0.1334
          36   -0.0000    0.0000   -0.0000    0.0000   -0.0000   -0.0000


           MASS-WEIGHTED COORDINATE ANALYSIS (NORMAL COORDINATES)


   Root No.       1         2         3         4         5         6         7         8

                 1 E2u     1 E2u     1 E2g     1 E2g     1 B1g     1 A2u     1 E1g     1 E1g 

                 390.1     390.1     598.9     598.9     606.0     806.1     917.6     917.6
  
           1   -0.0000    0.0000    0.5007   -0.1283   -0.0000    0.0000   -0.0000   -0.0000
           2    0.0000   -0.0000   -0.0518   -0.2021    0.0000   -0.0000    0.0000    0.0000
           3    0.4413   -0.1159    0.0000    0.0000    0.2938   -0.1136    0.2470    0.0950
           4   -0.0000    0.0000    0.1345   -0.0345   -0.0000   -0.0000    0.0000    0.0000
           5    0.0000   -0.0000    0.0145    0.0564    0.0000    0.0000   -0.0000   -0.0000
           6    0.3422   -0.0899    0.0000   -0.0000    0.2835    0.3921   -0.4789   -0.1843
           7    0.0000    0.0000   -0.0516   -0.3111    0.0000    0.0000   -0.0000    0.0000
           8   -0.0000   -0.0000   -0.3876   -0.2470   -0.0000   -0.0000    0.0000   -0.0000
           9   -0.3210   -0.3242    0.0000   -0.0000   -0.2938   -0.1136    0.2058   -0.1664
          10    0.0000    0.0000   -0.0846   -0.0143    0.0000   -0.0000    0.0000   -0.0000
          11   -0.0000   -0.0000   -0.0633   -0.1063   -0.0000    0.0000   -0.0000    0.0000
          12   -0.2489   -0.2514   -0.0000   -0.0000   -0.2835    0.3921   -0.3990    0.3226
          13    0.0000   -0.0000   -0.1044   -0.2975   -0.0000    0.0000    0.0000    0.0000
          14   -0.0000    0.0000   -0.2210    0.4030    0.0000   -0.0000   -0.0000   -0.0000
          15   -0.1203    0.4401    0.0000   -0.0000    0.2938   -0.1136   -0.0412   -0.2614
          16    0.0000   -0.0000    0.0673   -0.0533   -0.0000   -0.0000   -0.0000   -0.0000
          17   -0.0000    0.0000   -0.0043    0.1236    0.0000    0.0000    0.0000    0.0000
          18   -0.0933    0.3413    0.0000   -0.0000    0.2835    0.3921    0.0799    0.5069
          19   -0.0000    0.0000   -0.5007    0.1283    0.0000    0.0000    0.0000    0.0000
          20    0.0000   -0.0000    0.0518    0.2021   -0.0000   -0.0000   -0.0000   -0.0000
          21    0.4413   -0.1159   -0.0000   -0.0000   -0.2938   -0.1136   -0.2470   -0.0950
          22   -0.0000    0.0000   -0.1345    0.0345    0.0000   -0.0000   -0.0000   -0.0000
          23    0.0000   -0.0000   -0.0145   -0.0564   -0.0000    0.0000    0.0000    0.0000
          24    0.3422   -0.0899   -0.0000    0.0000   -0.2835    0.3921    0.4789    0.1843
          25    0.0000    0.0000    0.0516    0.3111   -0.0000    0.0000    0.0000   -0.0000
          26   -0.0000   -0.0000    0.3876    0.2470    0.0000   -0.0000   -0.0000    0.0000
          27   -0.3210   -0.3242   -0.0000    0.0000    0.2938   -0.1136   -0.2058    0.1664
          28    0.0000    0.0000    0.0846    0.0143   -0.0000   -0.0000   -0.0000    0.0000
          29   -0.0000   -0.0000    0.0633    0.1063    0.0000    0.0000    0.0000   -0.0000
          30   -0.2489   -0.2514    0.0000    0.0000    0.2835    0.3921    0.3990   -0.3226
          31    0.0000   -0.0000    0.1044    0.2975    0.0000    0.0000   -0.0000   -0.0000
          32   -0.0000    0.0000    0.2210   -0.4030   -0.0000   -0.0000    0.0000    0.0000
          33   -0.1203    0.4401   -0.0000    0.0000   -0.2938   -0.1136    0.0412    0.2614
          34    0.0000   -0.0000   -0.0673    0.0533    0.0000   -0.0000    0.0000    0.0000
          35   -0.0000    0.0000    0.0043   -0.1236   -0.0000    0.0000   -0.0000   -0.0000
          36   -0.0933    0.3413   -0.0000    0.0000   -0.2835    0.3921   -0.0799   -0.5069


   Root No.       9        10        11        12        13        14        15        16

                 1 B2u     2 E2u     2 E2u     2 B1g     1 E1u     1 E1u     1 B1u     1 A1g 

                 937.8    1028.3    1028.3    1067.3    1164.6    1164.6    1198.8    1220.2
  
           1    0.3955    0.0000   -0.0000    0.0000    0.0708   -0.2467   -0.0000   -0.3930
           2   -0.0000   -0.0000    0.0000   -0.0000    0.1257    0.0361   -0.2312    0.0000
           3    0.0000   -0.3420    0.0904   -0.2835    0.0000   -0.0000    0.0000   -0.0000
           4    0.1014   -0.0000    0.0000   -0.0000    0.0172   -0.0598    0.0000   -0.1107
           5   -0.0000    0.0000   -0.0000    0.0000    0.4772    0.1369    0.3365    0.0000
           6   -0.0000    0.4411   -0.1166    0.2938   -0.0000   -0.0000   -0.0000   -0.0000
           7   -0.1977   -0.0000   -0.0000   -0.0000   -0.1706   -0.0136   -0.2002   -0.1965
           8   -0.3425    0.0000    0.0000    0.0000   -0.1073   -0.2053    0.1156   -0.3403
           9    0.0000    0.2493    0.2510    0.2835   -0.0000    0.0000   -0.0000    0.0000
          10   -0.0507    0.0000    0.0000    0.0000   -0.3309    0.2762    0.2914   -0.0554
          11   -0.0878   -0.0000   -0.0000   -0.0000    0.1412   -0.2112   -0.1683   -0.0959
          12    0.0000   -0.3215   -0.3237   -0.2938   -0.0000    0.0000    0.0000    0.0000
          13   -0.1977   -0.0000    0.0000    0.0000    0.1519    0.0789    0.2002    0.1965
          14    0.3425    0.0000   -0.0000   -0.0000   -0.1998    0.1172    0.1156   -0.3403
          15   -0.0000    0.0927   -0.3414   -0.2835    0.0000    0.0000    0.0000    0.0000
          16   -0.0507    0.0000   -0.0000   -0.0000    0.1342    0.4097   -0.2914    0.0553
          17    0.0878   -0.0000    0.0000    0.0000    0.0077    0.2539   -0.1682   -0.0959
          18    0.0000   -0.1196    0.4403    0.2938   -0.0000    0.0000   -0.0000    0.0000
          19    0.3955    0.0000   -0.0000   -0.0000    0.0708   -0.2467   -0.0000    0.3930
          20   -0.0000   -0.0000    0.0000    0.0000    0.1257    0.0361   -0.2312   -0.0000
          21    0.0000   -0.3420    0.0904    0.2835   -0.0000   -0.0000    0.0000    0.0000
          22    0.1014   -0.0000    0.0000    0.0000    0.0172   -0.0598    0.0000    0.1107
          23   -0.0000    0.0000   -0.0000   -0.0000    0.4772    0.1369    0.3365   -0.0000
          24    0.0000    0.4411   -0.1166   -0.2938   -0.0000   -0.0000   -0.0000    0.0000
          25   -0.1977   -0.0000   -0.0000    0.0000   -0.1706   -0.0136   -0.2002    0.1965
          26   -0.3425    0.0000    0.0000   -0.0000   -0.1073   -0.2053    0.1156    0.3403
          27   -0.0000    0.2493    0.2510   -0.2835   -0.0000   -0.0000   -0.0000   -0.0000
          28   -0.0507    0.0000    0.0000   -0.0000   -0.3309    0.2762    0.2914    0.0554
          29   -0.0878   -0.0000   -0.0000    0.0000    0.1412   -0.2112   -0.1683    0.0959
          30   -0.0000   -0.3215   -0.3237    0.2938   -0.0000    0.0000    0.0000   -0.0000
          31   -0.1977   -0.0000    0.0000   -0.0000    0.1519    0.0789    0.2002   -0.1965
          32    0.3425    0.0000   -0.0000    0.0000   -0.1998    0.1172    0.1156    0.3403
          33   -0.0000    0.0927   -0.3414    0.2835    0.0000   -0.0000    0.0000   -0.0000
          34   -0.0507    0.0000   -0.0000    0.0000    0.1342    0.4097   -0.2914   -0.0553
          35    0.0878   -0.0000    0.0000   -0.0000    0.0077    0.2539   -0.1682    0.0959
          36   -0.0000   -0.1196    0.4403   -0.2938    0.0000    0.0000   -0.0000   -0.0000


   Root No.      17        18        19        20        21        22        23        24

                 2 E2g     2 E2g     1 A2g     2 B1u     2 E1u     2 E1u     3 E2g     3 E2g 

                1263.7    1263.7    1370.5    1382.0    1550.6    1550.6    1703.6    1703.6
  
           1   -0.0115    0.0363    0.0000    0.0000    0.0840    0.2927    0.0644   -0.2030
           2   -0.0536   -0.0170    0.1871    0.3365    0.3871   -0.1111   -0.5096   -0.1617
           3   -0.0000    0.0000   -0.0000   -0.0000    0.0000    0.0000    0.0000    0.0000
           4   -0.0044    0.0137   -0.0000    0.0000    0.0185    0.0644    0.0080   -0.0251
           5   -0.5463   -0.1733   -0.3628    0.2312   -0.2614    0.0750    0.0359    0.0114
           6    0.0000    0.0000    0.0000   -0.0000    0.0000   -0.0000   -0.0000    0.0000
           7   -0.0488    0.0188   -0.1621    0.2914   -0.3567   -0.1327   -0.2702    0.3908
           8   -0.0014   -0.0433    0.0936   -0.1683   -0.0383    0.3296    0.3218   -0.0440
           9    0.0000    0.0000   -0.0000    0.0000   -0.0000   -0.0000   -0.0000    0.0000
          10   -0.3714    0.3294    0.3142    0.2002    0.1461    0.1877    0.0330   -0.0123
          11    0.2032   -0.2025   -0.1814   -0.1156   -0.1381   -0.0527    0.0014    0.0295
          12   -0.0000    0.0000    0.0000    0.0000    0.0000    0.0000    0.0000    0.0000
          13   -0.0290   -0.0435   -0.1621   -0.2914    0.2321   -0.3016    0.0046   -0.4751
          14    0.0261   -0.0345   -0.0936   -0.1682   -0.2072   -0.2591   -0.2375   -0.2215
          15    0.0000   -0.0000   -0.0000   -0.0000    0.0000   -0.0000    0.0000   -0.0000
          16   -0.1137   -0.4832    0.3142   -0.2002   -0.0244    0.2366    0.0198    0.0291
          17   -0.0494   -0.2826    0.1814   -0.1156   -0.0892    0.1179   -0.0182    0.0233
          18    0.0000   -0.0000    0.0000   -0.0000   -0.0000    0.0000    0.0000   -0.0000
          19    0.0115   -0.0363   -0.0000    0.0000    0.0840    0.2927   -0.0644    0.2030
          20    0.0536    0.0170   -0.1871    0.3365    0.3871   -0.1111    0.5096    0.1617
          21    0.0000   -0.0000    0.0000    0.0000   -0.0000    0.0000   -0.0000   -0.0000
          22    0.0044   -0.0137    0.0000    0.0000    0.0185    0.0644   -0.0080    0.0251
          23    0.5463    0.1733    0.3628    0.2312   -0.2614    0.0750   -0.0359   -0.0114
          24   -0.0000   -0.0000   -0.0000    0.0000    0.0000    0.0000    0.0000   -0.0000
          25    0.0488   -0.0188    0.1621    0.2914   -0.3567   -0.1327    0.2702   -0.3908
          26    0.0014    0.0433   -0.0936   -0.1683   -0.0383    0.3296   -0.3218    0.0440
          27   -0.0000   -0.0000    0.0000    0.0000   -0.0000   -0.0000    0.0000   -0.0000
          28    0.3714   -0.3294   -0.3142    0.2002    0.1461    0.1877   -0.0330    0.0123
          29   -0.2032    0.2025    0.1814   -0.1156   -0.1381   -0.0527   -0.0014   -0.0295
          30    0.0000   -0.0000   -0.0000    0.0000    0.0000    0.0000   -0.0000   -0.0000
          31    0.0290    0.0435    0.1621   -0.2914    0.2321   -0.3016   -0.0046    0.4751
          32   -0.0261    0.0345    0.0936   -0.1682   -0.2072   -0.2591    0.2375    0.2215
          33   -0.0000    0.0000    0.0000   -0.0000    0.0000   -0.0000   -0.0000    0.0000
          34    0.1137    0.4832   -0.3142   -0.2002   -0.0244    0.2366   -0.0198   -0.0291
          35    0.0494    0.2826   -0.1814   -0.1156   -0.0892    0.1179    0.0182   -0.0233
          36    0.0000    0.0000   -0.0000   -0.0000    0.0000    0.0000   -0.0000    0.0000


   Root No.      25        26        27        28        29        30

                 2 B2u     4 E2g     4 E2g     3 E1u     3 E1u     2 A1g 

                2750.9    2756.4    2756.4    2762.8    2762.8    2774.5
  
           1   -0.1014    0.1345   -0.0359   -0.1405    0.0352    0.1107
           2    0.0000   -0.0073   -0.0271   -0.0041   -0.0164   -0.0000
           3   -0.0000    0.0000   -0.0000   -0.0000   -0.0000    0.0000
           4    0.3955   -0.5406    0.1445    0.5418   -0.1359   -0.3930
           5   -0.0000   -0.0005   -0.0020   -0.0001   -0.0004    0.0000
           6    0.0000   -0.0000    0.0000    0.0000   -0.0000   -0.0000
           7    0.0507   -0.0320   -0.0664   -0.0609   -0.0419    0.0554
           8    0.0878   -0.0951   -0.0754   -0.0812   -0.0960    0.0959
           9    0.0000    0.0000    0.0000   -0.0000    0.0000   -0.0000
          10   -0.1977    0.1990    0.1967    0.1941    0.2009   -0.1965
          11   -0.3425    0.3417    0.3436    0.3367    0.3474   -0.3403
          12    0.0000    0.0000   -0.0000   -0.0000   -0.0000    0.0000
          13    0.0507   -0.0054   -0.0735   -0.0339    0.0656   -0.0553
          14   -0.0878   -0.0448    0.1128    0.0263   -0.1229    0.0959
          15    0.0000   -0.0000   -0.0000   -0.0000    0.0000   -0.0000
          16   -0.1977   -0.0743    0.2697    0.0763   -0.2687    0.1965
          17    0.3425    0.1247   -0.4683   -0.1329    0.4652   -0.3403
          18   -0.0000   -0.0000    0.0000    0.0000   -0.0000    0.0000
          19   -0.1014   -0.1345    0.0359   -0.1405    0.0352   -0.1107
          20    0.0000    0.0073    0.0271   -0.0041   -0.0164    0.0000
          21   -0.0000   -0.0000    0.0000   -0.0000    0.0000   -0.0000
          22    0.3955    0.5406   -0.1445    0.5418   -0.1359    0.3930
          23   -0.0000    0.0005    0.0020   -0.0001   -0.0004   -0.0000
          24    0.0000    0.0000   -0.0000    0.0000   -0.0000    0.0000
          25    0.0507    0.0320    0.0664   -0.0609   -0.0419   -0.0554
          26    0.0878    0.0951    0.0754   -0.0812   -0.0960   -0.0959
          27   -0.0000   -0.0000   -0.0000    0.0000   -0.0000    0.0000
          28   -0.1977   -0.1990   -0.1967    0.1941    0.2009    0.1965
          29   -0.3425   -0.3417   -0.3436    0.3367    0.3474    0.3403
          30   -0.0000   -0.0000    0.0000    0.0000   -0.0000   -0.0000
          31    0.0507    0.0054    0.0735   -0.0339    0.0656    0.0553
          32   -0.0878    0.0448   -0.1128    0.0263   -0.1229   -0.0959
          33    0.0000    0.0000    0.0000   -0.0000    0.0000    0.0000
          34   -0.1977    0.0743   -0.2697    0.0763   -0.2687   -0.1965
          35    0.3425   -0.1247    0.4683   -0.1329    0.4652    0.3403
          36   -0.0000    0.0000   -0.0000    0.0000   -0.0000   -0.0000


          DESCRIPTION OF VIBRATIONS


 VIBRATION          2    1E2u         ATOM PAIR      ENERGY CONTRIBUTION    RADIAL
 FREQUENCY           390.07         C  9 -- C 11         +22.3% (100.5%)      0.0%
 TRANSITION DIPOLE   0.0000         C  3 -- C  5         +22.3% (100.5%)      0.0%
 TRAVEL (Ang.)       0.3785         C  5 -- C  7         +13.1% ( 77.2%)      0.0%
 REDUCED MASS        1.2067         C  1 -- C 11         +13.1% ( 77.2%)      0.0%
 EFFECTIVE MASS     16.3337
 FORCE CONSTANT      0.1082

 VIBRATION          4    1E2g         ATOM PAIR      ENERGY CONTRIBUTION    RADIAL
 FREQUENCY           598.86         C  3 -- C  5         +13.4% (107.5%)      0.0%
 TRANSITION DIPOLE   0.0000         C  9 -- C 11         +13.4% (107.5%)      0.0%
 TRAVEL (Ang.)       0.2267         C  5 -- C  7         +10.8% ( 96.6%)      0.7%
 REDUCED MASS        2.1902         C  1 -- C 11         +10.8% ( 96.6%)      0.7%
 EFFECTIVE MASS     18.1154
 FORCE CONSTANT      0.4628

 VIBRATION          5    1B1g         ATOM PAIR      ENERGY CONTRIBUTION    RADIAL
 FREQUENCY           605.98         C  7 -- C  9         +12.7% ( 49.5%)      0.0%
 TRANSITION DIPOLE   0.0000         C  1 -- C  3         +12.7% ( 49.5%)      0.0%
 TRAVEL (Ang.)       0.4396         C  9 -- C 11         +12.7% ( 49.5%)      0.0%
 REDUCED MASS        0.5759         C  3 -- C  5         +12.7% ( 49.5%)      0.0%
 EFFECTIVE MASS      9.8867         C  1 -- C 11         +12.7% ( 49.5%)      0.0%
 FORCE CONSTANT      0.1246         C  5 -- C  7         +12.7% ( 49.5%)      0.0%

 VIBRATION          6    1A2u         ATOM PAIR      ENERGY CONTRIBUTION    RADIAL
 FREQUENCY           806.10         C  1 -- H  2         +16.1% ( 46.8%)      0.0%
 TRANSITION DIPOLE   1.0028         C  3 -- H  4         +16.1% ( 46.8%)      0.0%
 TRAVEL (Ang.)       0.7347         C 11 -- H 12         +16.1% ( 46.8%)      0.0%
 REDUCED MASS        0.1550         C  9 -- H 10         +16.1% ( 46.8%)      0.0%
 EFFECTIVE MASS      1.4269         C  5 -- H  6         +16.1% ( 46.8%)      0.0%
 FORCE CONSTANT      0.0593         C  7 -- H  8         +16.1% ( 46.8%)      0.0%

 VIBRATION          8    1E1g         ATOM PAIR      ENERGY CONTRIBUTION    RADIAL
 FREQUENCY           917.57         C  5 -- H  6         +28.9% ( 59.2%)      0.0%
 TRANSITION DIPOLE   0.0000         C 11 -- H 12         +28.9% ( 59.2%)      0.0%
 TRAVEL (Ang.)       0.5036         C  9 -- H 10         +11.7% ( 37.7%)      0.0%
 REDUCED MASS        0.2898         C  3 -- H  4         +11.7% ( 37.7%)      0.0%
 EFFECTIVE MASS      2.2884
 FORCE CONSTANT      0.1437

 VIBRATION          9    1B2u         ATOM PAIR      ENERGY CONTRIBUTION    RADIAL
 FREQUENCY           937.75         C  9 -- C 11         +11.8% ( 66.2%)      0.0%
 TRANSITION DIPOLE   0.0000         C  7 -- C  9         +11.8% ( 66.2%)      0.0%
 TRAVEL (Ang.)       0.2019         C  5 -- C  7         +11.8% ( 66.2%)      0.0%
 REDUCED MASS        1.7632         C  1 -- C  3         +11.8% ( 66.2%)      0.0%
 EFFECTIVE MASS     13.9991         C  1 -- C 11         +11.8% ( 66.2%)      0.0%
 FORCE CONSTANT      0.9136         C  3 -- C  5         +11.8% ( 66.2%)      0.0%

 VIBRATION         11    2E2u         ATOM PAIR      ENERGY CONTRIBUTION    RADIAL
 FREQUENCY          1028.26         C  5 -- H  6         +22.8% ( 51.5%)      0.0%
 TRANSITION DIPOLE   0.0000         C 11 -- H 12         +22.8% ( 51.5%)      0.0%
 TRAVEL (Ang.)       0.3546         C  3 -- H  4         +12.3% ( 37.9%)      0.0%
 REDUCED MASS        0.5216         C  9 -- H 10         +12.3% ( 37.9%)      0.0%
 EFFECTIVE MASS      3.9226
 FORCE CONSTANT      0.3249

 VIBRATION         12    2B1g         ATOM PAIR      ENERGY CONTRIBUTION    RADIAL
 FREQUENCY          1067.32         C 11 -- H 12         +10.6% ( 35.9%)      0.0%
 TRANSITION DIPOLE   0.0000         C  5 -- H  6         +10.6% ( 35.9%)      0.0%
 TRAVEL (Ang.)       0.3518         C  7 -- H  8         +10.6% ( 35.9%)      0.0%
 REDUCED MASS        0.5104         C  1 -- H  2         +10.6% ( 35.9%)      0.0%
 EFFECTIVE MASS      5.2877         C  9 -- H 10         +10.6% ( 35.9%)      0.0%
 FORCE CONSTANT      0.3426         C  3 -- H  4         +10.6% ( 35.9%)      0.0%

 VIBRATION         14    1E1u         ATOM PAIR      ENERGY CONTRIBUTION    RADIAL
 FREQUENCY          1164.58         C 11 -- H 12         +16.0% ( 51.3%)      1.7%
 TRANSITION DIPOLE   0.2968         C  5 -- H  6         +16.0% ( 51.3%)      1.7%
 TRAVEL (Ang.)       0.4510         C  9 -- H 10          +9.7% ( 39.9%)     23.3%
 REDUCED MASS        0.2847         C  3 -- H  4          +9.7% ( 39.9%)     23.3%
 EFFECTIVE MASS      4.6437
 FORCE CONSTANT      0.2275

 VIBRATION         15    1B1u         ATOM PAIR      ENERGY CONTRIBUTION    RADIAL
 FREQUENCY          1198.80         C  5 -- H  6          +9.7% ( 46.2%)      0.0%
 TRANSITION DIPOLE   0.0000         C  1 -- H  2          +9.7% ( 46.2%)      0.0%
 TRAVEL (Ang.)       0.4455         C  3 -- H  4          +9.7% ( 46.2%)      0.0%
 REDUCED MASS        0.2834         C  9 -- H 10          +9.7% ( 46.2%)      0.0%
 EFFECTIVE MASS      4.9707
 FORCE CONSTANT      0.2399

 VIBRATION         16    1A1g         ATOM PAIR      ENERGY CONTRIBUTION    RADIAL
 FREQUENCY          1220.17         C  9 -- C 11         +12.5% ( 56.6%)    100.0%
 TRANSITION DIPOLE   0.0000         C  7 -- C  9         +12.5% ( 56.6%)    100.0%
 TRAVEL (Ang.)       0.1793         C  5 -- C  7         +12.5% ( 56.6%)    100.0%
 REDUCED MASS        1.7192         C  1 -- C 11         +12.5% ( 56.6%)    100.0%
 EFFECTIVE MASS     12.9237         C  3 -- C  5         +12.5% ( 56.6%)    100.0%
 FORCE CONSTANT      1.5080         C  1 -- C  3         +12.5% ( 56.6%)    100.0%

 VIBRATION         18    2E2g         ATOM PAIR      ENERGY CONTRIBUTION    RADIAL
 FREQUENCY          1263.68         C 11 -- H 12         +31.0% ( 54.5%)      0.0%
 TRANSITION DIPOLE   0.0000         C  5 -- H  6         +31.0% ( 54.5%)      0.0%
 TRAVEL (Ang.)       0.4664         C  9 -- H 10         +14.8% ( 37.7%)      0.2%
 REDUCED MASS        0.2453         C  3 -- H  4         +14.8% ( 37.7%)      0.2%
 EFFECTIVE MASS      1.1496
 FORCE CONSTANT      0.2308

 VIBRATION         19    1A2g         ATOM PAIR      ENERGY CONTRIBUTION    RADIAL
 FREQUENCY          1370.52         C  3 -- H  4         +13.1% ( 39.9%)      0.0%
 TRANSITION DIPOLE   0.0000         C  9 -- H 10         +13.1% ( 39.9%)      0.0%
 TRAVEL (Ang.)       0.5047         C  7 -- H  8         +13.1% ( 39.9%)      0.0%
 REDUCED MASS        0.1932         C  1 -- H  2         +13.1% ( 39.9%)      0.0%
 EFFECTIVE MASS      2.3114         C 11 -- H 12         +13.1% ( 39.9%)      0.0%
 FORCE CONSTANT      0.2138         C  5 -- H  6         +13.1% ( 39.9%)      0.0%

 VIBRATION         20    2B1u         ATOM PAIR      ENERGY CONTRIBUTION    RADIAL
 FREQUENCY          1381.97         C  1 -- C  3         +11.3% ( 49.6%)    100.0%
 TRANSITION DIPOLE   0.0000         C  3 -- C  5         +11.3% ( 49.6%)    100.0%
 TRAVEL (Ang.)       0.2277         C  1 -- C 11         +11.3% ( 49.6%)    100.0%
 REDUCED MASS        0.9411         C  5 -- C  7         +11.3% ( 49.6%)    100.0%
 EFFECTIVE MASS      8.1557         C  7 -- C  9         +11.3% ( 49.6%)    100.0%
 FORCE CONSTANT      1.0589         C  9 -- C 11         +11.3% ( 49.6%)    100.0%

 VIBRATION         22    2E1u         ATOM PAIR      ENERGY CONTRIBUTION    RADIAL
 FREQUENCY          1550.55         C  7 -- C  9         +11.0% ( 45.1%)     94.2%
 TRANSITION DIPOLE   0.5565         C  1 -- C  3         +11.0% ( 45.1%)     94.2%
 TRAVEL (Ang.)       0.1883         C  1 -- C 11         +10.6% ( 44.2%)     48.2%
 REDUCED MASS        1.2271         C  5 -- C  7         +10.6% ( 44.2%)     48.2%
 EFFECTIVE MASS      9.0997         C  9 -- C 11         +10.3% ( 43.5%)      7.6%
 FORCE CONSTANT      1.7382         C  3 -- C  5         +10.3% ( 43.5%)      7.6%

 VIBRATION         24    3E2g         ATOM PAIR      ENERGY CONTRIBUTION    RADIAL
 FREQUENCY          1703.56         C  9 -- C 11         +16.9% ( 57.6%)     96.0%
 TRANSITION DIPOLE   0.0000         C  3 -- C  5         +16.9% ( 57.6%)     96.0%
 TRAVEL (Ang.)       0.1259         C  1 -- C 11         +12.6% ( 49.8%)     74.2%
 REDUCED MASS        2.4976         C  5 -- C  7         +12.6% ( 49.8%)     74.2%
 EFFECTIVE MASS     11.9483
 FORCE CONSTANT      4.2705

 VIBRATION         25    2B2u         ATOM PAIR      ENERGY CONTRIBUTION    RADIAL
 FREQUENCY          2750.87         C  3 -- H  4         +16.3% ( 41.0%)    100.0%
 TRANSITION DIPOLE   0.0000         C  1 -- H  2         +16.3% ( 41.0%)    100.0%
 TRAVEL (Ang.)       0.3970         C  5 -- H  6         +16.3% ( 41.0%)    100.0%
 REDUCED MASS        0.1555         C  7 -- H  8         +16.3% ( 41.0%)    100.0%
 EFFECTIVE MASS      1.3765         C 11 -- H 12         +16.3% ( 41.0%)    100.0%
 FORCE CONSTANT      0.6934         C  9 -- H 10         +16.3% ( 41.0%)    100.0%

 VIBRATION         27    4E2g         ATOM PAIR      ENERGY CONTRIBUTION    RADIAL
 FREQUENCY          2756.37         C 11 -- H 12         +30.5% ( 55.8%)    100.0%
 TRANSITION DIPOLE   0.0000         C  5 -- H  6         +30.5% ( 55.8%)    100.0%
 TRAVEL (Ang.)       0.3241         C  9 -- H 10         +16.4% ( 40.9%)     99.9%
 REDUCED MASS        0.2328         C  3 -- H  4         +16.4% ( 40.9%)     99.9%
 EFFECTIVE MASS      1.3498
 FORCE CONSTANT      1.0423

 VIBRATION         29    3E1u         ATOM PAIR      ENERGY CONTRIBUTION    RADIAL
 FREQUENCY          2762.79         C 11 -- H 12         +30.1% ( 55.4%)    100.0%
 TRANSITION DIPOLE   1.3471         C  5 -- H  6         +30.1% ( 55.4%)    100.0%
 TRAVEL (Ang.)       0.3237         C  3 -- H  4         +16.8% ( 41.4%)     99.9%
 REDUCED MASS        0.2329         C  9 -- H 10         +16.8% ( 41.4%)     99.9%
 EFFECTIVE MASS      1.3836
 FORCE CONSTANT      1.0472

 VIBRATION         30    2A1g         ATOM PAIR      ENERGY CONTRIBUTION    RADIAL
 FREQUENCY          2774.50         C 11 -- H 12         +16.2% ( 40.6%)    100.0%
 TRANSITION DIPOLE   0.0000         C  9 -- H 10         +16.2% ( 40.6%)    100.0%
 TRAVEL (Ang.)       0.3960         C  7 -- H  8         +16.2% ( 40.6%)    100.0%
 REDUCED MASS        0.1550         C  5 -- H  6         +16.2% ( 40.6%)    100.0%
 EFFECTIVE MASS      1.4840         C  3 -- H  4         +16.2% ( 40.6%)    100.0%
 FORCE CONSTANT      0.7030         C  1 -- H  2         +16.2% ( 40.6%)    100.0%

      SYMMETRY NUMBER FOR POINT-GROUP D6h = 12


 Thermodynamic functions using PM7 hamiltonian
 Run from MolSSI flowchart


          MOLECULE IS NOT LINEAR

          THERE ARE 30 GENUINE VIBRATIONS IN THIS SYSTEM
          THIS THERMODYNAMICS CALCULATION IS LIMITED TO
          MOLECULES WHICH HAVE NO INTERNAL ROTATIONS




                    CALCULATED THERMODYNAMIC PROPERTIES
                                          *
   TEMP. (K)   PARTITION FUNCTION   H.O.F.    ENTHALPY  HEAT CAPACITY ENTROPY
                                   KCAL/MOL   CAL/MOLE    CAL/K/MOL  CAL/K/MOL


 298.00  VIB.     0.1816D+01                   977.6337    10.7283     4.4658
         ROT.     0.7508D+04                   888.2813     2.9808    20.7141
         INT.     0.1363D+05                  1865.9150    13.7091    25.1799
         TRA.     0.6674D+27                  1480.4688     4.9680    38.9795
         TOT.                       22.956    3346.3839    18.6771    64.1594

 200.00  VIB.     0.1191D+01                   239.0326     4.5731     1.5418
         ROT.     0.4128D+04                   596.1620     2.9808    19.5255
         INT.     0.4915D+04                   835.1945     7.5539    21.0673
         TRA.     0.3670D+27                   993.6033     4.9680    36.9983
         TOT.                       21.439    1828.7978    12.5219    58.0656

 210.00  VIB.     0.1229D+01                   287.5177     5.1276     1.7782
         ROT.     0.4442D+04                   625.9700     2.9808    19.6709
         INT.     0.5457D+04                   913.4878     8.1084    21.4491
         TRA.     0.3948D+27                  1043.2834     4.9680    37.2407
         TOT.                       21.567    1956.7712    13.0765    58.6899

 220.00  VIB.     0.1271D+01                   341.6569     5.7036     2.0300
         ROT.     0.4763D+04                   655.7781     2.9808    19.8096
         INT.     0.6055D+04                   997.4350     8.6845    21.8396
         TRA.     0.4234D+27                  1092.9636     4.9680    37.4719
         TOT.                       21.701    2090.3986    13.6525    59.3114

 230.00  VIB.     0.1319D+01                   401.6566     6.2995     2.2966
         ROT.     0.5091D+04                   685.5862     2.9808    19.9421
         INT.     0.6715D+04                  1087.2428     9.2803    22.2387
         TRA.     0.4526D+27                  1142.6437     4.9680    37.6927
         TOT.                       21.840    2229.8866    14.2483    59.9314

 240.00  VIB.     0.1372D+01                   467.7061     6.9133     2.5776
         ROT.     0.5427D+04                   715.3943     2.9808    20.0689
         INT.     0.7447D+04                  1183.1004     9.8941    22.6466
         TRA.     0.4824D+27                  1192.3239     4.9680    37.9041
         TOT.                       21.986    2375.4243    14.8621    60.5507

 250.00  VIB.     0.1431D+01                   539.9760     7.5432     2.8726
         ROT.     0.5769D+04                   745.2024     2.9808    20.1906
         INT.     0.8258D+04                  1285.1785    10.5240    23.0632
         TRA.     0.5129D+27                  1242.0041     4.9680    38.1069
         TOT.                       22.137    2527.1825    15.4921    61.1701

 260.00  VIB.     0.1497D+01                   618.6178     8.1873     3.1809
         ROT.     0.6119D+04                   775.0105     2.9808    20.3075
         INT.     0.9159D+04                  1393.6283    11.1681    23.4884
         TRA.     0.5439D+27                  1291.6842     4.9680    38.3018
         TOT.                       22.295    2685.3126    16.1361    61.7902

 270.00  VIB.     0.1569D+01                   703.7626     8.8435     3.5022
         ROT.     0.6475D+04                   804.8186     2.9808    20.4200
         INT.     0.1016D+05                  1508.5813    11.8243    23.9222
         TRA.     0.5756D+27                  1341.3644     4.9680    38.4893
         TOT.                       22.460    2849.9457    16.7923    62.4115

 280.00  VIB.     0.1650D+01                   795.5217     9.5098     3.8358
         ROT.     0.6838D+04                   834.6267     2.9808    20.5284
         INT.     0.1128D+05                  1630.1484    12.4906    24.3642
         TRA.     0.6079D+27                  1391.0445     4.9680    38.6700
         TOT.                       22.631    3021.1930    17.4586    63.0342

 290.00  VIB.     0.1738D+01                   893.9859    10.1842     4.1813
         ROT.     0.7208D+04                   864.4348     2.9808    20.6330
         INT.     0.1253D+05                  1758.4207    13.1650    24.8143
         TRA.     0.6407D+27                  1440.7247     4.9680    38.8443
         TOT.                       22.809    3199.1455    18.1331    63.6586

 300.00  VIB.     0.1836D+01                   999.2268    10.8648     4.5380
         ROT.     0.7584D+04                   894.2429     2.9808    20.7341
         INT.     0.1392D+05                  1893.4698    13.8456    25.2721
         TRA.     0.6742D+27                  1490.4049     4.9680    39.0127
         TOT.                       22.994    3383.8746    18.8137    64.2848

 310.00  VIB.     0.1944D+01                  1111.2970    11.5498     4.9054
         ROT.     0.7966D+04                   924.0510     2.9808    20.8318
         INT.     0.1548D+05                  2035.3480    14.5306    25.7372
         TRA.     0.7082D+27                  1540.0850     4.9680    39.1756
         TOT.                       23.186    3575.4331    19.4986    64.9128

 320.00  VIB.     0.2062D+01                  1230.2312    12.2373     5.2829
         ROT.     0.8355D+04                   953.8591     2.9808    20.9265
         INT.     0.1723D+05                  2184.0903    15.2182    26.2094
         TRA.     0.7427D+27                  1589.7652     4.9680    39.3333
         TOT.                       23.384    3773.8555    20.1862    65.5427

 330.00  VIB.     0.2193D+01                  1356.0472    12.9259     5.6700
         ROT.     0.8749D+04                   983.6672     2.9808    21.0182
         INT.     0.1919D+05                  2339.7144    15.9067    26.6882
         TRA.     0.7778D+27                  1639.4454     4.9680    39.4862
         TOT.                       23.589    3979.1597    20.8747    66.1744

 340.00  VIB.     0.2338D+01                  1488.7473    13.6139     6.0661
         ROT.     0.9150D+04                  1013.4753     2.9808    21.1072
         INT.     0.2139D+05                  2502.2226    16.5947    27.1733
         TRA.     0.8134D+27                  1689.1255     4.9680    39.6345
         TOT.                       23.801    4191.3482    21.5628    66.8078

 350.00  VIB.     0.2497D+01                  1628.3196    14.3001     6.4707
         ROT.     0.9557D+04                  1043.2834     2.9808    21.1936
         INT.     0.2386D+05                  2671.6030    17.2809    27.6642
         TRA.     0.8496D+27                  1738.8057     4.9680    39.7785
         TOT.                       24.021    4410.4087    22.2489    67.4428

 360.00  VIB.     0.2672D+01                  1774.7391    14.9832     6.8831
         ROT.     0.9969D+04                  1073.0915     2.9808    21.2775
         INT.     0.2664D+05                  2847.8306    17.9640    28.1607
         TRA.     0.8862D+27                  1788.4859     4.9680    39.9185
         TOT.                       24.246    4636.3164    22.9320    68.0791

 370.00  VIB.     0.2866D+01                  1927.9689    15.6620     7.3029
         ROT.     0.1039D+05                  1102.8996     2.9808    21.3592
         INT.     0.2977D+05                  3030.8685    18.6428    28.6621
         TRA.     0.9234D+27                  1838.1660     4.9680    40.0546
         TOT.                       24.479    4869.0345    23.6108    68.7167

 380.00  VIB.     0.3079D+01                  2087.9620    16.3357     7.7295
         ROT.     0.1081D+05                  1132.7077     2.9808    21.4387
         INT.     0.3329D+05                  3220.6698    19.3165    29.1682
         TRA.     0.9611D+27                  1887.8462     4.9680    40.1871
         TOT.                       24.719    5108.5159    24.2845    69.3553

 390.00  VIB.     0.3315D+01                  2254.6621    17.0033     8.1625
         ROT.     0.1124D+05                  1162.5158     2.9808    21.5161
         INT.     0.3726D+05                  3417.1779    19.9841    29.6786
         TRA.     0.9993D+27                  1937.5263     4.9680    40.3161
         TOT.                       24.965    5354.7043    24.9521    69.9948

 400.00  VIB.     0.3574D+01                  2428.0048    17.6641     8.6013
         ROT.     0.1168D+05                  1192.3239     2.9808    21.5916
         INT.     0.4174D+05                  3620.3287    20.6449    30.1929
         TRA.     0.1038D+28                  1987.2065     4.9680    40.4419
         TOT.                       25.218    5607.5352    25.6129    70.6349

   *: NOTE: HEATS OF FORMATION ARE RELATIVE TO THE
            ELEMENTS IN THEIR STANDARD STATE AT 298K
              (=  Standard Enthalpy of Formation).

            Hvib:  Zero-point energy is not included.
                   frequencies of less than zero cm-1 are not included.
            Hrot = (3/2)RT
            Htra = (3/2)RT + pV = (5/2)RT

            Heat capacity is Cp, not Cv

          For more information, see: HTTP://OpenMOPAC.net/Manual/thermochemistry.html


           FORCE CONSTANT IN CARTESIAN COORDINATES (Millidynes/A)

    ATOM   CHEMICAL       X               Y               Z
   NUMBER   SYMBOL  FORCE CONSTANT  FORCE CONSTANT  FORCE CONSTANT

      1       C        9.829124       11.534572        2.512416
      2       H        4.267286        0.922909        0.411323
      3       C       11.108156       10.255540        2.512416
      4       H        1.759108        3.431087        0.411323
      5       C       11.108263       10.255433        2.512416
      6       H        1.758898        3.431296        0.411323
      7       C        9.829124       11.534572        2.512416
      8       H        4.267286        0.922909        0.411323
      9       C       11.108156       10.255540        2.512416
     10       H        1.759108        3.431087        0.411323
     11       C       11.108263       10.255433        2.512416
     12       H        1.758898        3.431296        0.411323

 **********************
 *                    *
 * JOB ENDED NORMALLY *
 *                    *
 **********************



 TOTAL JOB TIME:             0.08 SECONDS

 == MOPAC DONE ==
