Name,SMILES,Exp HoF (kcal/mol),area,dipole,heat_of_formation,ionization_potential,volume
methane,C,-17.8,54.8134,0.000275294,-14.4041,13.7273,37.044
ethane,CC,-20.0,75.9252,4.97573e-05,-18.198,11.9681,57.4443
propane,CCC,-25.02,95.9398,0.0571527,-23.0877,11.3937,78.9198
n-butane,CCCC,-30.03,116.24,9.40384e-05,-28.2101,11.1765,101.267
2-methylpropane,CC(C)C,-32.07,114.332,0.0942805,-28.948,11.2841,101.938
n-pentane,CCCCC,-35.08,136.274,0.0631696,-33.2865,11.0864,122.912
2-methylbutane,CC(C)CC,-36.73,131.89,0.0590997,-33.4624,11.1322,123.007
"2,2-dimethylpropane",CC(C)(C)C,-40.14,130.322,0.000189956,-35.5278,11.3805,125.215