 *******************************************************************************
 ** Site#: 26757        For non-commercial use only    Version 19.255M 64BITS **
 *******************************************************************************
 ** Cite this program as: MOPAC2016, Version: 19.255M, James J. P. Stewart,   **
 ** Stewart Computational Chemistry, web: HTTP://OpenMOPAC.net. Days left: 358**
 *******************************************************************************
 **                                                                           **
 **                                MOPAC2016                                  **
 **                                                                           **
 *******************************************************************************

                              PM7 CALCULATION RESULTS

 *******************************************************************************
 *  CALCULATION DONE:                                Thu Sep 19 16:36:29 2019  *
 *  PM7        - The PM7 Hamiltonian to be used
 *  PRECISE    - CRITERIA TO BE INCREASED BY 100 TIMES
 *  T=         - A TIME OF 172800.0 SECONDS REQUESTED
 *  DUMP=N     - RESTART FILE WRITTEN EVERY  7200.000 SECONDS
 *  AUX        - OUTPUT AUXILIARY INFORMATION
 *******************************************************************************
PM7 PRECISE PM7 PRECISE PM7 PRECISE PM7 PRECISE PM7 PRECISE PM7 PRECISE PM7 PRECISE PM7 PRECISE AUX
 Run from MolSSI flowchart
 A structural optimization using PM7 hamiltonian
   ATOM   CHEMICAL          X               Y               Z
  NUMBER   SYMBOL      (ANGSTROMS)     (ANGSTROMS)     (ANGSTROMS)
 
     1       C          0.91258000  *   0.03572580  *  -0.05941310  *
     2       H          0.51663000  *   0.46599100  *   0.86735300  *
     3       H          0.51660200  *   0.62318600  *  -0.89541000  *
     4       H          0.51662600  *  -0.98200900  *  -0.15016300  *
     5       C          2.44792000  *   0.03573820  *  -0.05943670  *
     6       C          2.95969000  *   1.47755000  *   0.06913030  *
     7       H          2.61002000  *   1.94041000  *   0.99880200  *
     8       H          4.05501000  *   1.51015000  *   0.07202230  *
     9       H          2.60999000  *   2.09761000  *  -0.76396100  *
    10       C          2.95972000  *  -0.79651100  *   1.12491000  *
    11       H          2.61005000  *  -1.83306000  *   1.06093000  *
    12       H          4.05504000  *  -0.81531800  *   1.15167000  *
    13       H          2.61005000  *  -0.38506100  *   2.07845000  *
    14       C          2.95968000  *  -0.57381300  *  -1.37237000  *
    15       H          2.61001000  *  -1.60533000  *  -1.49281000  *
    16       H          2.60998000  *  -0.00013131  *  -2.23805000  *
    17       H          4.05500000  *  -0.58758600  *  -1.40207000  *
 


          CARTESIAN COORDINATES 

    NO.       ATOM           X           Y           Z

     1         C          0.9126      0.0357     -0.0594
     2         H          0.5166      0.4660      0.8674
     3         H          0.5166      0.6232     -0.8954
     4         H          0.5166     -0.9820     -0.1502
     5         C          2.4479      0.0357     -0.0594
     6         C          2.9597      1.4775      0.0691
     7         H          2.6100      1.9404      0.9988
     8         H          4.0550      1.5101      0.0720
     9         H          2.6100      2.0976     -0.7640
    10         C          2.9597     -0.7965      1.1249
    11         H          2.6101     -1.8331      1.0609
    12         H          4.0550     -0.8153      1.1517
    13         H          2.6101     -0.3851      2.0785
    14         C          2.9597     -0.5738     -1.3724
    15         H          2.6100     -1.6053     -1.4928
    16         H          2.6100     -0.0001     -2.2380
    17         H          4.0550     -0.5876     -1.4021

 General Reference for PM7:
 "Optimization of Parameters for Semiempirical Methods VI: More Modifications to the 
 NDDO Approximations and Re-optimization of Parameters", J. J. P. Stewart, J. Mol. Mod., 1:32, 19 (2013)
 http://www.springerlink.com/openurl.asp?genre=article&id=doi:10.1007/s00894-012-1667-x

           Empirical Formula: C5 H12  =    17 atoms



      MOLECULAR POINT GROUP   :   Td  


      RHF CALCULATION, NO. OF DOUBLY OCCUPIED LEVELS = 16


          Geometry optimization using EF

          DIAGONAL MATRIX USED AS START HESSIAN

 CYCLE:     1 TIME:   0.004 TIME LEFT:  2.00D  GRAD.:     4.319 HEAT: -35.50655
 CYCLE:     2 TIME:   0.008 TIME LEFT:  2.00D  GRAD.:     4.244 HEAT: -35.51205
 CYCLE:     3 TIME:   0.000 TIME LEFT:  2.00D  GRAD.:     3.889 HEAT: -35.51788
 CYCLE:     4 TIME:   0.004 TIME LEFT:  2.00D  GRAD.:     3.422 HEAT: -35.52135
 CYCLE:     5 TIME:   0.004 TIME LEFT:  2.00D  GRAD.:     1.331 HEAT: -35.52579
 CYCLE:     6 TIME:   0.000 TIME LEFT:  2.00D  GRAD.:     3.340 HEAT: -35.52303
 CYCLE:     7 TIME:   0.004 TIME LEFT:  2.00D  GRAD.:     1.990 HEAT: -35.52550
 CYCLE:     8 TIME:   0.000 TIME LEFT:  2.00D  GRAD.:     2.830 HEAT: -35.52372
 CYCLE:     9 TIME:   0.004 TIME LEFT:  2.00D  GRAD.:     1.593 HEAT: -35.52625
 CYCLE:    10 TIME:   0.004 TIME LEFT:  2.00D  GRAD.:     2.413 HEAT: -35.52455
 CYCLE:    11 TIME:   0.000 TIME LEFT:  2.00D  GRAD.:     0.528 HEAT: -35.52737
 CYCLE:    12 TIME:   0.004 TIME LEFT:  2.00D  GRAD.:     0.902 HEAT: -35.52719
 CYCLE:    13 TIME:   0.004 TIME LEFT:  2.00D  GRAD.:     0.480 HEAT: -35.52746
 CYCLE:    14 TIME:   0.000 TIME LEFT:  2.00D  GRAD.:     0.888 HEAT: -35.52727
 CYCLE:    15 TIME:   0.004 TIME LEFT:  2.00D  GRAD.:     0.246 HEAT: -35.52758
 CYCLE:    16 TIME:   0.004 TIME LEFT:  2.00D  GRAD.:     0.410 HEAT: -35.52757
 CYCLE:    17 TIME:   0.000 TIME LEFT:  2.00D  GRAD.:     0.122 HEAT: -35.52765
 CYCLE:    18 TIME:   0.004 TIME LEFT:  2.00D  GRAD.:     0.110 HEAT: -35.52769
 CYCLE:    19 TIME:   0.004 TIME LEFT:  2.00D  GRAD.:     0.216 HEAT: -35.52772
 CYCLE:    20 TIME:   0.004 TIME LEFT:  2.00D  GRAD.:     0.141 HEAT: -35.52775
 CYCLE:    21 TIME:   0.000 TIME LEFT:  2.00D  GRAD.:     0.076 HEAT: -35.52776
 CYCLE:    22 TIME:   0.004 TIME LEFT:  2.00D  GRAD.:     0.070 HEAT: -35.52777
 CYCLE:    23 TIME:   0.000 TIME LEFT:  2.00D  GRAD.:     0.050 HEAT: -35.52777
 CYCLE:    24 TIME:   0.004 TIME LEFT:  2.00D  GRAD.:     0.020 HEAT: -35.52778

     GRADIENT =  0.02040 IS LESS THAN CUTOFF =  0.05000



 -------------------------------------------------------------------------------
 PM7 PRECISE PM7 PRECISE PM7 PRECISE PM7 PRECISE PM7 PRECISE PM7 PRECISE PM7 PRECISE PM7 PRECISE AUX
 Run from MolSSI flowchart
 A structural optimization using PM7 hamiltonian


     GEOMETRY OPTIMISED USING EIGENVECTOR FOLLOWING (EF).     
     SCF FIELD WAS ACHIEVED                                   


                              PM7 CALCULATION
                                                       MOPAC2016 (Version: 19.255M)
                                                       Thu Sep 19 16:36:29 2019
                                                       No. of days remaining = 358




          FINAL HEAT OF FORMATION =        -35.52778 KCAL/MOL =    -148.64821 KJ/MOL


          TOTAL ENERGY            =       -776.96471 EV
          ELECTRONIC ENERGY       =      -3533.00216 EV  POINT GROUP:     Td  
          CORE-CORE REPULSION     =       2756.03746 EV
          COSMO AREA              =        130.32 SQUARE ANGSTROMS
          COSMO VOLUME            =        125.21 CUBIC ANGSTROMS

          GRADIENT NORM           =          0.02040 = 0.00495 PER ATOM
          IONIZATION POTENTIAL    =         11.380476 EV
          HOMO LUMO ENERGIES (EV) =        -11.380  4.289
          NO. OF FILLED LEVELS    =         16
          MOLECULAR WEIGHT        =         72.1498

          MOLECULAR DIMENSIONS (Angstroms)

            Atom       Atom       Distance
            H    16    H    13     4.33749
            H     8    H     4     4.33741
            H     2    H    17     3.06714


          SCF CALCULATIONS        =         26
 
          WALL-CLOCK TIME         =          0.074 SECONDS
          COMPUTATION TIME        =          0.074 SECONDS




   ATOM   CHEMICAL          X               Y               Z
  NUMBER   SYMBOL      (ANGSTROMS)     (ANGSTROMS)     (ANGSTROMS)
 
     1       C          0.91062007  *   0.03572338  *  -0.05941285  *
     2       H          0.51285812  *   0.46511185  *   0.86552853  *
     3       H          0.51285603  *   0.62199673  *  -0.89378045  *
     4       H          0.51301351  *  -0.98006672  *  -0.14999020  *
     5       C          2.44795058  *   0.03579604  *  -0.05942502  *
     6       C          2.96035901  *   1.47947253  *   0.06929888  *
     7       H          2.61220993  *   1.94383500  *   0.99734566  *
     8       H          4.05438265  *   1.51440918  *   0.07240046  *
     9       H          2.61217867  *   2.10069244  *  -0.76194964  *
    10       C          2.96037334  *  -0.79761131  *   1.12643128  *
    11       H          2.61216556  *  -1.83348233  *   1.06443276  *
    12       H          4.05439245  *  -0.81778076  *   1.15513386  *
    13       H          2.61220205  *  -0.38845276  *   2.08009277  *
    14       C          2.96033120  *  -0.57461524  *  -1.37405803  *
    15       H          2.61212153  *  -1.60511842  *  -1.49633625  *
    16       H          2.61212618  *  -0.00315727  *  -2.24024632  *
    17       H          4.05434873  *  -0.58939555  *  -1.40591539  *

                             CARTESIAN COORDINATES

   1    C        0.910620070     0.035723379    -0.059412848
   2    H        0.512858117     0.465111851     0.865528531
   3    H        0.512856031     0.621996725    -0.893780451
   4    H        0.513013511    -0.980066725    -0.149990200
   5    C        2.447950584     0.035796044    -0.059425019
   6    C        2.960359009     1.479472535     0.069298884
   7    H        2.612209927     1.943834997     0.997345660
   8    H        4.054382651     1.514409176     0.072400460
   9    H        2.612178670     2.100692441    -0.761949640
  10    C        2.960373339    -0.797611309     1.126431278
  11    H        2.612165559    -1.833482326     1.064432759
  12    H        4.054392446    -0.817780757     1.155133858
  13    H        2.612202048    -0.388452762     2.080092773
  14    C        2.960331203    -0.574615243    -1.374058031
  15    H        2.612121532    -1.605118418    -1.496336255
  16    H        2.612126182    -0.003157270    -2.240246319
  17    H        4.054348728    -0.589395548    -1.405915394


           Empirical Formula: C5 H12  =    17 atoms



      MOLECULAR POINT GROUP   :   Td  


                  EIGENVALUES  
 -29.65235 -23.86568 -23.86525 -23.86520 -18.15372 -15.28881 -15.28862 -15.28851
 -13.57329 -13.57327 -12.59524 -12.59521 -12.59511 -11.38078 -11.38053 -11.38048
   4.28922   4.28923   4.28940   5.16316   5.94879   5.94882   6.04429   6.04435
   6.04441   6.08911   6.08918   6.08924   7.04255   7.24283   7.24285   7.24285


              NET ATOMIC CHARGES AND DIPOLE CONTRIBUTIONS

  ATOM NO.   TYPE          CHARGE      No. of ELECS.   s-Pop       p-Pop       
    1          C          -0.467600        4.4676     1.05946     3.40814
    2          H           0.143490        0.8565     0.85651
    3          H           0.143489        0.8565     0.85651
    4          H           0.143490        0.8565     0.85651
    5          C           0.148503        3.8515     1.04779     2.80371
    6          C          -0.467592        4.4676     1.05945     3.40814
    7          H           0.143492        0.8565     0.85651
    8          H           0.143492        0.8565     0.85651
    9          H           0.143492        0.8565     0.85651
   10          C          -0.467596        4.4676     1.05946     3.40814
   11          H           0.143489        0.8565     0.85651
   12          H           0.143491        0.8565     0.85651
   13          H           0.143488        0.8565     0.85651
   14          C          -0.467597        4.4676     1.05946     3.40814
   15          H           0.143490        0.8565     0.85651
   16          H           0.143488        0.8565     0.85651
   17          H           0.143491        0.8565     0.85651
 DIPOLE           X         Y         Z       TOTAL
 POINT-CHG.    -0.000    -0.000    -0.000     0.000
 HYBRID        -0.000    -0.000    -0.000     0.000
 SUM           -0.000    -0.000    -0.000     0.000


          ATOMIC ORBITAL ELECTRON POPULATIONS

     Atom    s        px        py        pz   
    1  C   1.05946   1.06148   1.17333   1.17333
    2  H   0.85651
    3  H   0.85651
    4  H   0.85651
    5  C   1.04779   0.93457   0.93457   0.93457
    6  C   1.05945   1.16091   1.07468   1.17255
    7  H   0.85651
    8  H   0.85651
    9  H   0.85651
   10  C   1.05946   1.16090   1.14046   1.10678
   11  H   0.85651
   12  H   0.85651
   13  H   0.85651
   14  C   1.05946   1.16090   1.15570   1.09154
   15  H   0.85651
   16  H   0.85651
   17  H   0.85651

 **********************
 *                    *
 * JOB ENDED NORMALLY *
 *                    *
 **********************



 TOTAL JOB TIME:             0.08 SECONDS

 == MOPAC DONE ==
